# LAMMPS data file written by OVITO Basic 3.12.0

1536 atoms
3 atom types

-7.82 23.46 xlo xhi
-13.5446 40.6338 ylo yhi
-80.0 87.36 zlo zhi

Masses

1 1.008  # H
2 15.999  # O
3 1e-100  # M

Atoms # charge 

1	2	0	-1.303203	-9.932933	3.22
2	1	0.5897	-1.71258	-10.646056	3.496
3	1	0.5897	-0.48093	-9.934964	3.496
4	3	-1.1794	-1.23765	-10.046474	3.307638
5	2	0	-5.213203	-3.160633	3.22
6	1	0.5897	-5.62258	-3.873756	3.496
7	1	0.5897	-4.39093	-3.162664	3.496
8	3	-1.1794	-5.14765	-3.274174	3.307638
9	2	0	-1.303203	-9.932933	0.46
10	1	0.5897	-1.303203	-9.932933	1.28064
11	1	0.5897	-1.71258	-9.223873	0.19136
12	3	-1.1794	-1.368582	-9.819693	0.548157
13	2	0	-2.606797	-7.675048	4.14
14	1	0.5897	-2.606797	-7.675048	4.96064
15	1	0.5897	-2.19742	-8.384108	3.87136
16	3	-1.1794	-2.541418	-7.788288	4.228157
17	2	0	-5.213203	-3.160633	0.46
18	1	0.5897	-5.213203	-3.160633	1.28064
19	1	0.5897	-5.62258	-2.451573	0.19136
20	3	-1.1794	-5.278582	-3.047393	0.548157
21	2	0	-6.516797	-0.902748	4.14
22	1	0.5897	-6.516797	-0.902748	4.96064
23	1	0.5897	-6.10742	-1.611808	3.87136
24	3	-1.1794	-6.451418	-1.015988	4.228157
25	2	0	-5.213203	-7.675048	0.46
26	1	0.5897	-5.213203	-7.675048	1.28064
27	1	0.5897	-5.62258	-8.384108	0.19136
28	3	-1.1794	-5.278582	-7.788288	0.548157
29	2	0	-1.303203	-0.902748	0.46
30	1	0.5897	-1.303203	-0.902748	1.28064
31	1	0.5897	-1.71258	-1.611808	0.19136
32	3	-1.1794	-1.368582	-1.015988	0.548157
33	2	0	-2.606797	-7.675048	6.9
34	1	0.5897	-2.19742	-6.961925	7.176
35	1	0.5897	-3.42907	-7.673016	7.176
36	3	-1.1794	-2.67235	-7.561507	6.987638
37	2	0	-6.516797	-9.932933	6.9
38	1	0.5897	-6.10742	-10.646056	7.176
39	1	0.5897	-7.33907	-9.934964	7.176
40	3	-1.1794	-6.58235	-10.046474	6.987638
41	2	0	-6.516797	-0.902748	6.9
42	1	0.5897	-6.10742	-0.189625	7.176
43	1	0.5897	-7.33907	-0.900716	7.176
44	3	-1.1794	-6.58235	-0.789207	6.987638
45	2	0	-2.606797	-3.160633	6.9
46	1	0.5897	-2.19742	-3.873756	7.176
47	1	0.5897	-3.42907	-3.162664	7.176
48	3	-1.1794	-2.67235	-3.274174	6.987638
49	2	0	-6.516797	-9.932933	4.14
50	1	0.5897	-6.516797	-9.932933	4.96064
51	1	0.5897	-6.10742	-9.223873	3.87136
52	3	-1.1794	-6.451418	-9.819693	4.228157
53	2	0	-2.606797	-3.160633	4.14
54	1	0.5897	-2.606797	-3.160633	4.96064
55	1	0.5897	-2.19742	-2.451573	3.87136
56	3	-1.1794	-2.541418	-3.047393	4.228157
57	2	0	-5.213203	-7.675048	3.22
58	1	0.5897	-5.62258	-6.961925	3.496
59	1	0.5897	-4.39093	-7.673016	3.496
60	3	-1.1794	-5.14765	-7.561507	3.307638
61	2	0	-2.606406	-12.19014	4.14
62	1	0.5897	-2.606406	-12.19014	4.96064
63	1	0.5897	-3.42516	-12.19014	3.87136
64	3	-1.1794	-2.737164	-12.19014	4.228157
65	2	0	-1.303203	-0.902748	3.22
66	1	0.5897	-1.71258	-0.189625	3.496
67	1	0.5897	-0.48093	-0.900716	3.496
68	3	-1.1794	-1.23765	-0.789207	3.307638
69	2	0	-6.516406	-5.41784	4.14
70	1	0.5897	-6.516406	-5.41784	4.96064
71	1	0.5897	-7.33516	-5.41784	3.87136
72	3	-1.1794	-6.647164	-5.41784	4.228157
73	2	0	-5.213594	-12.19014	3.22
74	1	0.5897	-5.62649	-11.479049	3.496
75	1	0.5897	-5.62649	-12.901232	3.496
76	3	-1.1794	-5.3447	-12.19014	3.307638
77	2	0	-1.303594	-5.41784	3.22
78	1	0.5897	-1.71649	-4.706749	3.496
79	1	0.5897	-1.71649	-6.128932	3.496
80	3	-1.1794	-1.4347	-5.41784	3.307638
81	2	0	-5.213594	-12.19014	0.46
82	1	0.5897	-5.213594	-12.19014	1.28064
83	1	0.5897	-4.39484	-12.19014	0.19136
84	3	-1.1794	-5.082836	-12.19014	0.548157
85	2	0	-1.303594	-5.41784	0.46
86	1	0.5897	-1.303594	-5.41784	1.28064
87	1	0.5897	-0.48484	-5.41784	0.19136
88	3	-1.1794	-1.172836	-5.41784	0.548157
89	2	0	-2.606406	-12.19014	6.9
90	1	0.5897	-2.19351	-11.479049	7.176
91	1	0.5897	-2.19351	-12.901232	7.176
92	3	-1.1794	-2.4753	-12.19014	6.987638
93	2	0	-6.516406	-5.41784	6.9
94	1	0.5897	-6.10351	-4.706749	7.176
95	1	0.5897	-6.10351	-6.128932	7.176
96	3	-1.1794	-6.3853	-5.41784	6.987638
97	2	0	-1.303203	3.611667	3.22
98	1	0.5897	-1.71258	2.898544	3.496
99	1	0.5897	-0.48093	3.609636	3.496
100	3	-1.1794	-1.23765	3.498126	3.307638
101	2	0	-5.213203	10.383967	3.22
102	1	0.5897	-5.62258	9.670844	3.496
103	1	0.5897	-4.39093	10.381936	3.496
104	3	-1.1794	-5.14765	10.270426	3.307638
105	2	0	-1.303203	3.611667	0.46
106	1	0.5897	-1.303203	3.611667	1.28064
107	1	0.5897	-1.71258	4.320727	0.19136
108	3	-1.1794	-1.368582	3.724907	0.548157
109	2	0	-2.606797	5.869552	4.14
110	1	0.5897	-2.606797	5.869552	4.96064
111	1	0.5897	-2.19742	5.160492	3.87136
112	3	-1.1794	-2.541418	5.756312	4.228157
113	2	0	-5.213203	10.383967	0.46
114	1	0.5897	-5.213203	10.383967	1.28064
115	1	0.5897	-5.62258	11.093027	0.19136
116	3	-1.1794	-5.278582	10.497207	0.548157
117	2	0	-6.516797	12.641852	4.14
118	1	0.5897	-6.516797	12.641852	4.96064
119	1	0.5897	-6.10742	11.932792	3.87136
120	3	-1.1794	-6.451418	12.528612	4.228157
121	2	0	-5.213203	5.869552	0.46
122	1	0.5897	-5.213203	5.869552	1.28064
123	1	0.5897	-5.62258	5.160492	0.19136
124	3	-1.1794	-5.278582	5.756312	0.548157
125	2	0	-1.303203	12.641852	0.46
126	1	0.5897	-1.303203	12.641852	1.28064
127	1	0.5897	-1.71258	11.932792	0.19136
128	3	-1.1794	-1.368582	12.528612	0.548157
129	2	0	-2.606797	5.869552	6.9
130	1	0.5897	-2.19742	6.582675	7.176
131	1	0.5897	-3.42907	5.871584	7.176
132	3	-1.1794	-2.67235	5.983093	6.987638
133	2	0	-6.516797	3.611667	6.9
134	1	0.5897	-6.10742	2.898544	7.176
135	1	0.5897	-7.33907	3.609636	7.176
136	3	-1.1794	-6.58235	3.498126	6.987638
137	2	0	-6.516797	12.641852	6.9
138	1	0.5897	-6.10742	13.354975	7.176
139	1	0.5897	-7.33907	12.643884	7.176
140	3	-1.1794	-6.58235	12.755393	6.987638
141	2	0	-2.606797	10.383967	6.9
142	1	0.5897	-2.19742	9.670844	7.176
143	1	0.5897	-3.42907	10.381936	7.176
144	3	-1.1794	-2.67235	10.270426	6.987638
145	2	0	-6.516797	3.611667	4.14
146	1	0.5897	-6.516797	3.611667	4.96064
147	1	0.5897	-6.10742	4.320727	3.87136
148	3	-1.1794	-6.451418	3.724907	4.228157
149	2	0	-2.606797	10.383967	4.14
150	1	0.5897	-2.606797	10.383967	4.96064
151	1	0.5897	-2.19742	11.093027	3.87136
152	3	-1.1794	-2.541418	10.497207	4.228157
153	2	0	-5.213203	5.869552	3.22
154	1	0.5897	-5.62258	6.582675	3.496
155	1	0.5897	-4.39093	5.871584	3.496
156	3	-1.1794	-5.14765	5.983093	3.307638
157	2	0	-2.606406	1.35446	4.14
158	1	0.5897	-2.606406	1.35446	4.96064
159	1	0.5897	-3.42516	1.35446	3.87136
160	3	-1.1794	-2.737164	1.35446	4.228157
161	2	0	-1.303203	12.641852	3.22
162	1	0.5897	-1.71258	13.354975	3.496
163	1	0.5897	-0.48093	12.643884	3.496
164	3	-1.1794	-1.23765	12.755393	3.307638
165	2	0	-6.516406	8.12676	4.14
166	1	0.5897	-6.516406	8.12676	4.96064
167	1	0.5897	-7.33516	8.12676	3.87136
168	3	-1.1794	-6.647164	8.12676	4.228157
169	2	0	-5.213594	1.35446	3.22
170	1	0.5897	-5.62649	2.065551	3.496
171	1	0.5897	-5.62649	0.643368	3.496
172	3	-1.1794	-5.3447	1.35446	3.307638
173	2	0	-1.303594	8.12676	3.22
174	1	0.5897	-1.71649	8.837851	3.496
175	1	0.5897	-1.71649	7.415668	3.496
176	3	-1.1794	-1.4347	8.12676	3.307638
177	2	0	-5.213594	1.35446	0.46
178	1	0.5897	-5.213594	1.35446	1.28064
179	1	0.5897	-4.39484	1.35446	0.19136
180	3	-1.1794	-5.082836	1.35446	0.548157
181	2	0	-1.303594	8.12676	0.46
182	1	0.5897	-1.303594	8.12676	1.28064
183	1	0.5897	-0.48484	8.12676	0.19136
184	3	-1.1794	-1.172836	8.12676	0.548157
185	2	0	-2.606406	1.35446	6.9
186	1	0.5897	-2.19351	2.065551	7.176
187	1	0.5897	-2.19351	0.643368	7.176
188	3	-1.1794	-2.4753	1.35446	6.987638
189	2	0	-6.516406	8.12676	6.9
190	1	0.5897	-6.10351	8.837851	7.176
191	1	0.5897	-6.10351	7.415668	7.176
192	3	-1.1794	-6.3853	8.12676	6.987638
193	2	0	-1.303203	17.156267	3.22
194	1	0.5897	-1.71258	16.443144	3.496
195	1	0.5897	-0.48093	17.154236	3.496
196	3	-1.1794	-1.23765	17.042726	3.307638
197	2	0	-5.213203	23.928567	3.22
198	1	0.5897	-5.62258	23.215444	3.496
199	1	0.5897	-4.39093	23.926536	3.496
200	3	-1.1794	-5.14765	23.815026	3.307638
201	2	0	-1.303203	17.156267	0.46
202	1	0.5897	-1.303203	17.156267	1.28064
203	1	0.5897	-1.71258	17.865327	0.19136
204	3	-1.1794	-1.368582	17.269507	0.548157
205	2	0	-2.606797	19.414152	4.14
206	1	0.5897	-2.606797	19.414152	4.96064
207	1	0.5897	-2.19742	18.705092	3.87136
208	3	-1.1794	-2.541418	19.300912	4.228157
209	2	0	-5.213203	23.928567	0.46
210	1	0.5897	-5.213203	23.928567	1.28064
211	1	0.5897	-5.62258	24.637627	0.19136
212	3	-1.1794	-5.278582	24.041807	0.548157
213	2	0	-6.516797	26.186452	4.14
214	1	0.5897	-6.516797	26.186452	4.96064
215	1	0.5897	-6.10742	25.477392	3.87136
216	3	-1.1794	-6.451418	26.073212	4.228157
217	2	0	-5.213203	19.414152	0.46
218	1	0.5897	-5.213203	19.414152	1.28064
219	1	0.5897	-5.62258	18.705092	0.19136
220	3	-1.1794	-5.278582	19.300912	0.548157
221	2	0	-1.303203	26.186452	0.46
222	1	0.5897	-1.303203	26.186452	1.28064
223	1	0.5897	-1.71258	25.477392	0.19136
224	3	-1.1794	-1.368582	26.073212	0.548157
225	2	0	-2.606797	19.414152	6.9
226	1	0.5897	-2.19742	20.127275	7.176
227	1	0.5897	-3.42907	19.416184	7.176
228	3	-1.1794	-2.67235	19.527693	6.987638
229	2	0	-6.516797	17.156267	6.9
230	1	0.5897	-6.10742	16.443144	7.176
231	1	0.5897	-7.33907	17.154236	7.176
232	3	-1.1794	-6.58235	17.042726	6.987638
233	2	0	-6.516797	26.186452	6.9
234	1	0.5897	-6.10742	26.899575	7.176
235	1	0.5897	-7.33907	26.188484	7.176
236	3	-1.1794	-6.58235	26.299993	6.987638
237	2	0	-2.606797	23.928567	6.9
238	1	0.5897	-2.19742	23.215444	7.176
239	1	0.5897	-3.42907	23.926536	7.176
240	3	-1.1794	-2.67235	23.815026	6.987638
241	2	0	-6.516797	17.156267	4.14
242	1	0.5897	-6.516797	17.156267	4.96064
243	1	0.5897	-6.10742	17.865327	3.87136
244	3	-1.1794	-6.451418	17.269507	4.228157
245	2	0	-2.606797	23.928567	4.14
246	1	0.5897	-2.606797	23.928567	4.96064
247	1	0.5897	-2.19742	24.637627	3.87136
248	3	-1.1794	-2.541418	24.041807	4.228157
249	2	0	-5.213203	19.414152	3.22
250	1	0.5897	-5.62258	20.127275	3.496
251	1	0.5897	-4.39093	19.416184	3.496
252	3	-1.1794	-5.14765	19.527693	3.307638
253	2	0	-2.606406	14.89906	4.14
254	1	0.5897	-2.606406	14.89906	4.96064
255	1	0.5897	-3.42516	14.89906	3.87136
256	3	-1.1794	-2.737164	14.89906	4.228157
257	2	0	-1.303203	26.186452	3.22
258	1	0.5897	-1.71258	26.899575	3.496
259	1	0.5897	-0.48093	26.188484	3.496
260	3	-1.1794	-1.23765	26.299993	3.307638
261	2	0	-6.516406	21.67136	4.14
262	1	0.5897	-6.516406	21.67136	4.96064
263	1	0.5897	-7.33516	21.67136	3.87136
264	3	-1.1794	-6.647164	21.67136	4.228157
265	2	0	-5.213594	14.89906	3.22
266	1	0.5897	-5.62649	15.610151	3.496
267	1	0.5897	-5.62649	14.187968	3.496
268	3	-1.1794	-5.3447	14.89906	3.307638
269	2	0	-1.303594	21.67136	3.22
270	1	0.5897	-1.71649	22.382451	3.496
271	1	0.5897	-1.71649	20.960268	3.496
272	3	-1.1794	-1.4347	21.67136	3.307638
273	2	0	-5.213594	14.89906	0.46
274	1	0.5897	-5.213594	14.89906	1.28064
275	1	0.5897	-4.39484	14.89906	0.19136
276	3	-1.1794	-5.082836	14.89906	0.548157
277	2	0	-1.303594	21.67136	0.46
278	1	0.5897	-1.303594	21.67136	1.28064
279	1	0.5897	-0.48484	21.67136	0.19136
280	3	-1.1794	-1.172836	21.67136	0.548157
281	2	0	-2.606406	14.89906	6.9
282	1	0.5897	-2.19351	15.610151	7.176
283	1	0.5897	-2.19351	14.187968	7.176
284	3	-1.1794	-2.4753	14.89906	6.987638
285	2	0	-6.516406	21.67136	6.9
286	1	0.5897	-6.10351	22.382451	7.176
287	1	0.5897	-6.10351	20.960268	7.176
288	3	-1.1794	-6.3853	21.67136	6.987638
289	2	0	-1.303203	30.700867	3.22
290	1	0.5897	-1.71258	29.987744	3.496
291	1	0.5897	-0.48093	30.698836	3.496
292	3	-1.1794	-1.23765	30.587326	3.307638
293	2	0	-5.213203	37.473167	3.22
294	1	0.5897	-5.62258	36.760044	3.496
295	1	0.5897	-4.39093	37.471136	3.496
296	3	-1.1794	-5.14765	37.359626	3.307638
297	2	0	-1.303203	30.700867	0.46
298	1	0.5897	-1.303203	30.700867	1.28064
299	1	0.5897	-1.71258	31.409927	0.19136
300	3	-1.1794	-1.368582	30.814107	0.548157
301	2	0	-2.606797	32.958752	4.14
302	1	0.5897	-2.606797	32.958752	4.96064
303	1	0.5897	-2.19742	32.249692	3.87136
304	3	-1.1794	-2.541418	32.845512	4.228157
305	2	0	-5.213203	37.473167	0.46
306	1	0.5897	-5.213203	37.473167	1.28064
307	1	0.5897	-5.62258	38.182227	0.19136
308	3	-1.1794	-5.278582	37.586407	0.548157
309	2	0	-6.516797	39.731052	4.14
310	1	0.5897	-6.516797	39.731052	4.96064
311	1	0.5897	-6.10742	39.021992	3.87136
312	3	-1.1794	-6.451418	39.617812	4.228157
313	2	0	-5.213203	32.958752	0.46
314	1	0.5897	-5.213203	32.958752	1.28064
315	1	0.5897	-5.62258	32.249692	0.19136
316	3	-1.1794	-5.278582	32.845512	0.548157
317	2	0	-1.303203	39.731052	0.46
318	1	0.5897	-1.303203	39.731052	1.28064
319	1	0.5897	-1.71258	39.021992	0.19136
320	3	-1.1794	-1.368582	39.617812	0.548157
321	2	0	-2.606797	32.958752	6.9
322	1	0.5897	-2.19742	33.671875	7.176
323	1	0.5897	-3.42907	32.960784	7.176
324	3	-1.1794	-2.67235	33.072293	6.987638
325	2	0	-6.516797	30.700867	6.9
326	1	0.5897	-6.10742	29.987744	7.176
327	1	0.5897	-7.33907	30.698836	7.176
328	3	-1.1794	-6.58235	30.587326	6.987638
329	2	0	-6.516797	39.731052	6.9
330	1	0.5897	-6.10742	40.444175	7.176
331	1	0.5897	-7.33907	39.733084	7.176
332	3	-1.1794	-6.58235	39.844593	6.987638
333	2	0	-2.606797	37.473167	6.9
334	1	0.5897	-2.19742	36.760044	7.176
335	1	0.5897	-3.42907	37.471136	7.176
336	3	-1.1794	-2.67235	37.359626	6.987638
337	2	0	-6.516797	30.700867	4.14
338	1	0.5897	-6.516797	30.700867	4.96064
339	1	0.5897	-6.10742	31.409927	3.87136
340	3	-1.1794	-6.451418	30.814107	4.228157
341	2	0	-2.606797	37.473167	4.14
342	1	0.5897	-2.606797	37.473167	4.96064
343	1	0.5897	-2.19742	38.182227	3.87136
344	3	-1.1794	-2.541418	37.586407	4.228157
345	2	0	-5.213203	32.958752	3.22
346	1	0.5897	-5.62258	33.671875	3.496
347	1	0.5897	-4.39093	32.960784	3.496
348	3	-1.1794	-5.14765	33.072293	3.307638
349	2	0	-2.606406	28.44366	4.14
350	1	0.5897	-2.606406	28.44366	4.96064
351	1	0.5897	-3.42516	28.44366	3.87136
352	3	-1.1794	-2.737164	28.44366	4.228157
353	2	0	-1.303203	39.731052	3.22
354	1	0.5897	-1.71258	40.444175	3.496
355	1	0.5897	-0.48093	39.733084	3.496
356	3	-1.1794	-1.23765	39.844593	3.307638
357	2	0	-6.516406	35.21596	4.14
358	1	0.5897	-6.516406	35.21596	4.96064
359	1	0.5897	-7.33516	35.21596	3.87136
360	3	-1.1794	-6.647164	35.21596	4.228157
361	2	0	-5.213594	28.44366	3.22
362	1	0.5897	-5.62649	29.154751	3.496
363	1	0.5897	-5.62649	27.732568	3.496
364	3	-1.1794	-5.3447	28.44366	3.307638
365	2	0	-1.303594	35.21596	3.22
366	1	0.5897	-1.71649	35.927051	3.496
367	1	0.5897	-1.71649	34.504868	3.496
368	3	-1.1794	-1.4347	35.21596	3.307638
369	2	0	-5.213594	28.44366	0.46
370	1	0.5897	-5.213594	28.44366	1.28064
371	1	0.5897	-4.39484	28.44366	0.19136
372	3	-1.1794	-5.082836	28.44366	0.548157
373	2	0	-1.303594	35.21596	0.46
374	1	0.5897	-1.303594	35.21596	1.28064
375	1	0.5897	-0.48484	35.21596	0.19136
376	3	-1.1794	-1.172836	35.21596	0.548157
377	2	0	-2.606406	28.44366	6.9
378	1	0.5897	-2.19351	29.154751	7.176
379	1	0.5897	-2.19351	27.732568	7.176
380	3	-1.1794	-2.4753	28.44366	6.987638
381	2	0	-6.516406	35.21596	6.9
382	1	0.5897	-6.10351	35.927051	7.176
383	1	0.5897	-6.10351	34.504868	7.176
384	3	-1.1794	-6.3853	35.21596	6.987638
385	2	0	6.516797	-9.932933	3.22
386	1	0.5897	6.10742	-10.646056	3.496
387	1	0.5897	7.33907	-9.934964	3.496
388	3	-1.1794	6.58235	-10.046474	3.307638
389	2	0	2.606797	-3.160633	3.22
390	1	0.5897	2.19742	-3.873756	3.496
391	1	0.5897	3.42907	-3.162664	3.496
392	3	-1.1794	2.67235	-3.274174	3.307638
393	2	0	6.516797	-9.932933	0.46
394	1	0.5897	6.516797	-9.932933	1.28064
395	1	0.5897	6.10742	-9.223873	0.19136
396	3	-1.1794	6.451418	-9.819693	0.548157
397	2	0	5.213203	-7.675048	4.14
398	1	0.5897	5.213203	-7.675048	4.96064
399	1	0.5897	5.62258	-8.384108	3.87136
400	3	-1.1794	5.278582	-7.788288	4.228157
401	2	0	2.606797	-3.160633	0.46
402	1	0.5897	2.606797	-3.160633	1.28064
403	1	0.5897	2.19742	-2.451573	0.19136
404	3	-1.1794	2.541418	-3.047393	0.548157
405	2	0	1.303203	-0.902748	4.14
406	1	0.5897	1.303203	-0.902748	4.96064
407	1	0.5897	1.71258	-1.611808	3.87136
408	3	-1.1794	1.368582	-1.015988	4.228157
409	2	0	2.606797	-7.675048	0.46
410	1	0.5897	2.606797	-7.675048	1.28064
411	1	0.5897	2.19742	-8.384108	0.19136
412	3	-1.1794	2.541418	-7.788288	0.548157
413	2	0	6.516797	-0.902748	0.46
414	1	0.5897	6.516797	-0.902748	1.28064
415	1	0.5897	6.10742	-1.611808	0.19136
416	3	-1.1794	6.451418	-1.015988	0.548157
417	2	0	5.213203	-7.675048	6.9
418	1	0.5897	5.62258	-6.961925	7.176
419	1	0.5897	4.39093	-7.673016	7.176
420	3	-1.1794	5.14765	-7.561507	6.987638
421	2	0	1.303203	-9.932933	6.9
422	1	0.5897	1.71258	-10.646056	7.176
423	1	0.5897	0.48093	-9.934964	7.176
424	3	-1.1794	1.23765	-10.046474	6.987638
425	2	0	1.303203	-0.902748	6.9
426	1	0.5897	1.71258	-0.189625	7.176
427	1	0.5897	0.48093	-0.900716	7.176
428	3	-1.1794	1.23765	-0.789207	6.987638
429	2	0	5.213203	-3.160633	6.9
430	1	0.5897	5.62258	-3.873756	7.176
431	1	0.5897	4.39093	-3.162664	7.176
432	3	-1.1794	5.14765	-3.274174	6.987638
433	2	0	1.303203	-9.932933	4.14
434	1	0.5897	1.303203	-9.932933	4.96064
435	1	0.5897	1.71258	-9.223873	3.87136
436	3	-1.1794	1.368582	-9.819693	4.228157
437	2	0	5.213203	-3.160633	4.14
438	1	0.5897	5.213203	-3.160633	4.96064
439	1	0.5897	5.62258	-2.451573	3.87136
440	3	-1.1794	5.278582	-3.047393	4.228157
441	2	0	2.606797	-7.675048	3.22
442	1	0.5897	2.19742	-6.961925	3.496
443	1	0.5897	3.42907	-7.673016	3.496
444	3	-1.1794	2.67235	-7.561507	3.307638
445	2	0	5.213594	-12.19014	4.14
446	1	0.5897	5.213594	-12.19014	4.96064
447	1	0.5897	4.39484	-12.19014	3.87136
448	3	-1.1794	5.082836	-12.19014	4.228157
449	2	0	6.516797	-0.902748	3.22
450	1	0.5897	6.10742	-0.189625	3.496
451	1	0.5897	7.33907	-0.900716	3.496
452	3	-1.1794	6.58235	-0.789207	3.307638
453	2	0	1.303594	-5.41784	4.14
454	1	0.5897	1.303594	-5.41784	4.96064
455	1	0.5897	0.48484	-5.41784	3.87136
456	3	-1.1794	1.172836	-5.41784	4.228157
457	2	0	2.606406	-12.19014	3.22
458	1	0.5897	2.19351	-11.479049	3.496
459	1	0.5897	2.19351	-12.901232	3.496
460	3	-1.1794	2.4753	-12.19014	3.307638
461	2	0	6.516406	-5.41784	3.22
462	1	0.5897	6.10351	-4.706749	3.496
463	1	0.5897	6.10351	-6.128932	3.496
464	3	-1.1794	6.3853	-5.41784	3.307638
465	2	0	2.606406	-12.19014	0.46
466	1	0.5897	2.606406	-12.19014	1.28064
467	1	0.5897	3.42516	-12.19014	0.19136
468	3	-1.1794	2.737164	-12.19014	0.548157
469	2	0	6.516406	-5.41784	0.46
470	1	0.5897	6.516406	-5.41784	1.28064
471	1	0.5897	7.33516	-5.41784	0.19136
472	3	-1.1794	6.647164	-5.41784	0.548157
473	2	0	5.213594	-12.19014	6.9
474	1	0.5897	5.62649	-11.479049	7.176
475	1	0.5897	5.62649	-12.901232	7.176
476	3	-1.1794	5.3447	-12.19014	6.987638
477	2	0	1.303594	-5.41784	6.9
478	1	0.5897	1.71649	-4.706749	7.176
479	1	0.5897	1.71649	-6.128932	7.176
480	3	-1.1794	1.4347	-5.41784	6.987638
481	2	0	6.516797	3.611667	3.22
482	1	0.5897	6.10742	2.898544	3.496
483	1	0.5897	7.33907	3.609636	3.496
484	3	-1.1794	6.58235	3.498126	3.307638
485	2	0	2.606797	10.383967	3.22
486	1	0.5897	2.19742	9.670844	3.496
487	1	0.5897	3.42907	10.381936	3.496
488	3	-1.1794	2.67235	10.270426	3.307638
489	2	0	6.516797	3.611667	0.46
490	1	0.5897	6.516797	3.611667	1.28064
491	1	0.5897	6.10742	4.320727	0.19136
492	3	-1.1794	6.451418	3.724907	0.548157
493	2	0	5.213203	5.869552	4.14
494	1	0.5897	5.213203	5.869552	4.96064
495	1	0.5897	5.62258	5.160492	3.87136
496	3	-1.1794	5.278582	5.756312	4.228157
497	2	0	2.606797	10.383967	0.46
498	1	0.5897	2.606797	10.383967	1.28064
499	1	0.5897	2.19742	11.093027	0.19136
500	3	-1.1794	2.541418	10.497207	0.548157
501	2	0	1.303203	12.641852	4.14
502	1	0.5897	1.303203	12.641852	4.96064
503	1	0.5897	1.71258	11.932792	3.87136
504	3	-1.1794	1.368582	12.528612	4.228157
505	2	0	2.606797	5.869552	0.46
506	1	0.5897	2.606797	5.869552	1.28064
507	1	0.5897	2.19742	5.160492	0.19136
508	3	-1.1794	2.541418	5.756312	0.548157
509	2	0	6.516797	12.641852	0.46
510	1	0.5897	6.516797	12.641852	1.28064
511	1	0.5897	6.10742	11.932792	0.19136
512	3	-1.1794	6.451418	12.528612	0.548157
513	2	0	5.213203	5.869552	6.9
514	1	0.5897	5.62258	6.582675	7.176
515	1	0.5897	4.39093	5.871584	7.176
516	3	-1.1794	5.14765	5.983093	6.987638
517	2	0	1.303203	3.611667	6.9
518	1	0.5897	1.71258	2.898544	7.176
519	1	0.5897	0.48093	3.609636	7.176
520	3	-1.1794	1.23765	3.498126	6.987638
521	2	0	1.303203	12.641852	6.9
522	1	0.5897	1.71258	13.354975	7.176
523	1	0.5897	0.48093	12.643884	7.176
524	3	-1.1794	1.23765	12.755393	6.987638
525	2	0	5.213203	10.383967	6.9
526	1	0.5897	5.62258	9.670844	7.176
527	1	0.5897	4.39093	10.381936	7.176
528	3	-1.1794	5.14765	10.270426	6.987638
529	2	0	1.303203	3.611667	4.14
530	1	0.5897	1.303203	3.611667	4.96064
531	1	0.5897	1.71258	4.320727	3.87136
532	3	-1.1794	1.368582	3.724907	4.228157
533	2	0	5.213203	10.383967	4.14
534	1	0.5897	5.213203	10.383967	4.96064
535	1	0.5897	5.62258	11.093027	3.87136
536	3	-1.1794	5.278582	10.497207	4.228157
537	2	0	2.606797	5.869552	3.22
538	1	0.5897	2.19742	6.582675	3.496
539	1	0.5897	3.42907	5.871584	3.496
540	3	-1.1794	2.67235	5.983093	3.307638
541	2	0	5.213594	1.35446	4.14
542	1	0.5897	5.213594	1.35446	4.96064
543	1	0.5897	4.39484	1.35446	3.87136
544	3	-1.1794	5.082836	1.35446	4.228157
545	2	0	6.516797	12.641852	3.22
546	1	0.5897	6.10742	13.354975	3.496
547	1	0.5897	7.33907	12.643884	3.496
548	3	-1.1794	6.58235	12.755393	3.307638
549	2	0	1.303594	8.12676	4.14
550	1	0.5897	1.303594	8.12676	4.96064
551	1	0.5897	0.48484	8.12676	3.87136
552	3	-1.1794	1.172836	8.12676	4.228157
553	2	0	2.606406	1.35446	3.22
554	1	0.5897	2.19351	2.065551	3.496
555	1	0.5897	2.19351	0.643368	3.496
556	3	-1.1794	2.4753	1.35446	3.307638
557	2	0	6.516406	8.12676	3.22
558	1	0.5897	6.10351	8.837851	3.496
559	1	0.5897	6.10351	7.415668	3.496
560	3	-1.1794	6.3853	8.12676	3.307638
561	2	0	2.606406	1.35446	0.46
562	1	0.5897	2.606406	1.35446	1.28064
563	1	0.5897	3.42516	1.35446	0.19136
564	3	-1.1794	2.737164	1.35446	0.548157
565	2	0	6.516406	8.12676	0.46
566	1	0.5897	6.516406	8.12676	1.28064
567	1	0.5897	7.33516	8.12676	0.19136
568	3	-1.1794	6.647164	8.12676	0.548157
569	2	0	5.213594	1.35446	6.9
570	1	0.5897	5.62649	2.065551	7.176
571	1	0.5897	5.62649	0.643368	7.176
572	3	-1.1794	5.3447	1.35446	6.987638
573	2	0	1.303594	8.12676	6.9
574	1	0.5897	1.71649	8.837851	7.176
575	1	0.5897	1.71649	7.415668	7.176
576	3	-1.1794	1.4347	8.12676	6.987638
577	2	0	6.516797	17.156267	3.22
578	1	0.5897	6.10742	16.443144	3.496
579	1	0.5897	7.33907	17.154236	3.496
580	3	-1.1794	6.58235	17.042726	3.307638
581	2	0	2.606797	23.928567	3.22
582	1	0.5897	2.19742	23.215444	3.496
583	1	0.5897	3.42907	23.926536	3.496
584	3	-1.1794	2.67235	23.815026	3.307638
585	2	0	6.516797	17.156267	0.46
586	1	0.5897	6.516797	17.156267	1.28064
587	1	0.5897	6.10742	17.865327	0.19136
588	3	-1.1794	6.451418	17.269507	0.548157
589	2	0	5.213203	19.414152	4.14
590	1	0.5897	5.213203	19.414152	4.96064
591	1	0.5897	5.62258	18.705092	3.87136
592	3	-1.1794	5.278582	19.300912	4.228157
593	2	0	2.606797	23.928567	0.46
594	1	0.5897	2.606797	23.928567	1.28064
595	1	0.5897	2.19742	24.637627	0.19136
596	3	-1.1794	2.541418	24.041807	0.548157
597	2	0	1.303203	26.186452	4.14
598	1	0.5897	1.303203	26.186452	4.96064
599	1	0.5897	1.71258	25.477392	3.87136
600	3	-1.1794	1.368582	26.073212	4.228157
601	2	0	2.606797	19.414152	0.46
602	1	0.5897	2.606797	19.414152	1.28064
603	1	0.5897	2.19742	18.705092	0.19136
604	3	-1.1794	2.541418	19.300912	0.548157
605	2	0	6.516797	26.186452	0.46
606	1	0.5897	6.516797	26.186452	1.28064
607	1	0.5897	6.10742	25.477392	0.19136
608	3	-1.1794	6.451418	26.073212	0.548157
609	2	0	5.213203	19.414152	6.9
610	1	0.5897	5.62258	20.127275	7.176
611	1	0.5897	4.39093	19.416184	7.176
612	3	-1.1794	5.14765	19.527693	6.987638
613	2	0	1.303203	17.156267	6.9
614	1	0.5897	1.71258	16.443144	7.176
615	1	0.5897	0.48093	17.154236	7.176
616	3	-1.1794	1.23765	17.042726	6.987638
617	2	0	1.303203	26.186452	6.9
618	1	0.5897	1.71258	26.899575	7.176
619	1	0.5897	0.48093	26.188484	7.176
620	3	-1.1794	1.23765	26.299993	6.987638
621	2	0	5.213203	23.928567	6.9
622	1	0.5897	5.62258	23.215444	7.176
623	1	0.5897	4.39093	23.926536	7.176
624	3	-1.1794	5.14765	23.815026	6.987638
625	2	0	1.303203	17.156267	4.14
626	1	0.5897	1.303203	17.156267	4.96064
627	1	0.5897	1.71258	17.865327	3.87136
628	3	-1.1794	1.368582	17.269507	4.228157
629	2	0	5.213203	23.928567	4.14
630	1	0.5897	5.213203	23.928567	4.96064
631	1	0.5897	5.62258	24.637627	3.87136
632	3	-1.1794	5.278582	24.041807	4.228157
633	2	0	2.606797	19.414152	3.22
634	1	0.5897	2.19742	20.127275	3.496
635	1	0.5897	3.42907	19.416184	3.496
636	3	-1.1794	2.67235	19.527693	3.307638
637	2	0	5.213594	14.89906	4.14
638	1	0.5897	5.213594	14.89906	4.96064
639	1	0.5897	4.39484	14.89906	3.87136
640	3	-1.1794	5.082836	14.89906	4.228157
641	2	0	6.516797	26.186452	3.22
642	1	0.5897	6.10742	26.899575	3.496
643	1	0.5897	7.33907	26.188484	3.496
644	3	-1.1794	6.58235	26.299993	3.307638
645	2	0	1.303594	21.67136	4.14
646	1	0.5897	1.303594	21.67136	4.96064
647	1	0.5897	0.48484	21.67136	3.87136
648	3	-1.1794	1.172836	21.67136	4.228157
649	2	0	2.606406	14.89906	3.22
650	1	0.5897	2.19351	15.610151	3.496
651	1	0.5897	2.19351	14.187968	3.496
652	3	-1.1794	2.4753	14.89906	3.307638
653	2	0	6.516406	21.67136	3.22
654	1	0.5897	6.10351	22.382451	3.496
655	1	0.5897	6.10351	20.960268	3.496
656	3	-1.1794	6.3853	21.67136	3.307638
657	2	0	2.606406	14.89906	0.46
658	1	0.5897	2.606406	14.89906	1.28064
659	1	0.5897	3.42516	14.89906	0.19136
660	3	-1.1794	2.737164	14.89906	0.548157
661	2	0	6.516406	21.67136	0.46
662	1	0.5897	6.516406	21.67136	1.28064
663	1	0.5897	7.33516	21.67136	0.19136
664	3	-1.1794	6.647164	21.67136	0.548157
665	2	0	5.213594	14.89906	6.9
666	1	0.5897	5.62649	15.610151	7.176
667	1	0.5897	5.62649	14.187968	7.176
668	3	-1.1794	5.3447	14.89906	6.987638
669	2	0	1.303594	21.67136	6.9
670	1	0.5897	1.71649	22.382451	7.176
671	1	0.5897	1.71649	20.960268	7.176
672	3	-1.1794	1.4347	21.67136	6.987638
673	2	0	6.516797	30.700867	3.22
674	1	0.5897	6.10742	29.987744	3.496
675	1	0.5897	7.33907	30.698836	3.496
676	3	-1.1794	6.58235	30.587326	3.307638
677	2	0	2.606797	37.473167	3.22
678	1	0.5897	2.19742	36.760044	3.496
679	1	0.5897	3.42907	37.471136	3.496
680	3	-1.1794	2.67235	37.359626	3.307638
681	2	0	6.516797	30.700867	0.46
682	1	0.5897	6.516797	30.700867	1.28064
683	1	0.5897	6.10742	31.409927	0.19136
684	3	-1.1794	6.451418	30.814107	0.548157
685	2	0	5.213203	32.958752	4.14
686	1	0.5897	5.213203	32.958752	4.96064
687	1	0.5897	5.62258	32.249692	3.87136
688	3	-1.1794	5.278582	32.845512	4.228157
689	2	0	2.606797	37.473167	0.46
690	1	0.5897	2.606797	37.473167	1.28064
691	1	0.5897	2.19742	38.182227	0.19136
692	3	-1.1794	2.541418	37.586407	0.548157
693	2	0	1.303203	39.731052	4.14
694	1	0.5897	1.303203	39.731052	4.96064
695	1	0.5897	1.71258	39.021992	3.87136
696	3	-1.1794	1.368582	39.617812	4.228157
697	2	0	2.606797	32.958752	0.46
698	1	0.5897	2.606797	32.958752	1.28064
699	1	0.5897	2.19742	32.249692	0.19136
700	3	-1.1794	2.541418	32.845512	0.548157
701	2	0	6.516797	39.731052	0.46
702	1	0.5897	6.516797	39.731052	1.28064
703	1	0.5897	6.10742	39.021992	0.19136
704	3	-1.1794	6.451418	39.617812	0.548157
705	2	0	5.213203	32.958752	6.9
706	1	0.5897	5.62258	33.671875	7.176
707	1	0.5897	4.39093	32.960784	7.176
708	3	-1.1794	5.14765	33.072293	6.987638
709	2	0	1.303203	30.700867	6.9
710	1	0.5897	1.71258	29.987744	7.176
711	1	0.5897	0.48093	30.698836	7.176
712	3	-1.1794	1.23765	30.587326	6.987638
713	2	0	1.303203	39.731052	6.9
714	1	0.5897	1.71258	40.444175	7.176
715	1	0.5897	0.48093	39.733084	7.176
716	3	-1.1794	1.23765	39.844593	6.987638
717	2	0	5.213203	37.473167	6.9
718	1	0.5897	5.62258	36.760044	7.176
719	1	0.5897	4.39093	37.471136	7.176
720	3	-1.1794	5.14765	37.359626	6.987638
721	2	0	1.303203	30.700867	4.14
722	1	0.5897	1.303203	30.700867	4.96064
723	1	0.5897	1.71258	31.409927	3.87136
724	3	-1.1794	1.368582	30.814107	4.228157
725	2	0	5.213203	37.473167	4.14
726	1	0.5897	5.213203	37.473167	4.96064
727	1	0.5897	5.62258	38.182227	3.87136
728	3	-1.1794	5.278582	37.586407	4.228157
729	2	0	2.606797	32.958752	3.22
730	1	0.5897	2.19742	33.671875	3.496
731	1	0.5897	3.42907	32.960784	3.496
732	3	-1.1794	2.67235	33.072293	3.307638
733	2	0	5.213594	28.44366	4.14
734	1	0.5897	5.213594	28.44366	4.96064
735	1	0.5897	4.39484	28.44366	3.87136
736	3	-1.1794	5.082836	28.44366	4.228157
737	2	0	6.516797	39.731052	3.22
738	1	0.5897	6.10742	40.444175	3.496
739	1	0.5897	7.33907	39.733084	3.496
740	3	-1.1794	6.58235	39.844593	3.307638
741	2	0	1.303594	35.21596	4.14
742	1	0.5897	1.303594	35.21596	4.96064
743	1	0.5897	0.48484	35.21596	3.87136
744	3	-1.1794	1.172836	35.21596	4.228157
745	2	0	2.606406	28.44366	3.22
746	1	0.5897	2.19351	29.154751	3.496
747	1	0.5897	2.19351	27.732568	3.496
748	3	-1.1794	2.4753	28.44366	3.307638
749	2	0	6.516406	35.21596	3.22
750	1	0.5897	6.10351	35.927051	3.496
751	1	0.5897	6.10351	34.504868	3.496
752	3	-1.1794	6.3853	35.21596	3.307638
753	2	0	2.606406	28.44366	0.46
754	1	0.5897	2.606406	28.44366	1.28064
755	1	0.5897	3.42516	28.44366	0.19136
756	3	-1.1794	2.737164	28.44366	0.548157
757	2	0	6.516406	35.21596	0.46
758	1	0.5897	6.516406	35.21596	1.28064
759	1	0.5897	7.33516	35.21596	0.19136
760	3	-1.1794	6.647164	35.21596	0.548157
761	2	0	5.213594	28.44366	6.9
762	1	0.5897	5.62649	29.154751	7.176
763	1	0.5897	5.62649	27.732568	7.176
764	3	-1.1794	5.3447	28.44366	6.987638
765	2	0	1.303594	35.21596	6.9
766	1	0.5897	1.71649	35.927051	7.176
767	1	0.5897	1.71649	34.504868	7.176
768	3	-1.1794	1.4347	35.21596	6.987638
769	2	0	14.336797	-9.932933	3.22
770	1	0.5897	13.92742	-10.646056	3.496
771	1	0.5897	15.15907	-9.934964	3.496
772	3	-1.1794	14.40235	-10.046474	3.307638
773	2	0	10.426797	-3.160633	3.22
774	1	0.5897	10.01742	-3.873756	3.496
775	1	0.5897	11.24907	-3.162664	3.496