# LAMMPS data file written by OVITO Basic 3.12.0

1536 atoms
3 atom types

-7.82 23.46 xlo xhi
-13.5446 40.6338 ylo yhi
-80.0 87.36

7.36 zlo zhi

Masses

1 1.008  # H
2 15.999  # O
3 1e-100  # M

Atoms # charge 

1	1	2	0	-1.303203	-9.932933	3.22
2	1	1	0.5897	-1.71258	-10.646056	3.496
3	1	1	0.5897	-0.48093	-9.934964	3.496
4	1	3	-1.1794	-1.23765	-10.046474	3.307638
5	2	2	0	-5.213203	-3.160633	3.22
6	2	1	0.5897	-5.62258	-3.873756	3.496
7	2	1	0.5897	-4.39093	-3.162664	3.496
8	2	3	-1.1794	-5.14765	-3.274174	3.307638
9	3	2	0	-1.303203	-9.932933	0.46
10	3	1	0.5897	-1.303203	-9.932933	1.28064
11	3	1	0.5897	-1.71258	-9.223873	0.19136
12	3	3	-1.1794	-1.368582	-9.819693	0.548157
13	4	2	0	-2.606797	-7.675048	4.14
14	4	1	0.5897	-2.606797	-7.675048	4.96064
15	4	1	0.5897	-2.19742	-8.384108	3.87136
16	4	3	-1.1794	-2.541418	-7.788288	4.228157
17	5	2	0	-5.213203	-3.160633	0.46
18	5	1	0.5897	-5.213203	-3.160633	1.28064
19	5	1	0.5897	-5.62258	-2.451573	0.19136
20	5	3	-1.1794	-5.278582	-3.047393	0.548157
21	6	2	0	-6.516797	-0.902748	4.14
22	6	1	0.5897	-6.516797	-0.902748	4.96064
23	6	1	0.5897	-6.10742	-1.611808	3.87136
24	6	3	-1.1794	-6.451418	-1.015988	4.228157
25	7	2	0	-5.213203	-7.675048	0.46
26	7	1	0.5897	-5.213203	-7.675048	1.28064
27	7	1	0.5897	-5.62258	-8.384108	0.19136
28	7	3	-1.1794	-5.278582	-7.788288	0.548157
29	8	2	0	-1.303203	-0.902748	0.46
30	8	1	0.5897	-1.303203	-0.902748	1.28064
31	8	1	0.5897	-1.71258	-1.611808	0.19136
32	8	3	-1.1794	-1.368582	-1.015988	0.548157
33	9	2	0	-2.606797	-7.675048	6.9
34	9	1	0.5897	-2.19742	-6.961925	7.176
35	9	1	0.5897	-3.42907	-7.673016	7.176
36	9	3	-1.1794	-2.67235	-7.561507	6.987638
37	10	2	0	-6.516797	-9.932933	6.9
38	10	1	0.5897	-6.10742	-10.646056	7.176
39	10	1	0.5897	-7.33907	-9.934964	7.176
40	10	3	-1.1794	-6.58235	-10.046474	6.987638
41	11	2	0	-6.516797	-0.902748	6.9
42	11	1	0.5897	-6.10742	-0.189625	7.176
43	11	1	0.5897	-7.33907	-0.900716	7.176
44	11	3	-1.1794	-6.58235	-0.789207	6.987638
45	12	2	0	-2.606797	-3.160633	6.9
46	12	1	0.5897	-2.19742	-3.873756	7.176
47	12	1	0.5897	-3.42907	-3.162664	7.176
48	12	3	-1.1794	-2.67235	-3.274174	6.987638
49	13	2	0	-6.516797	-9.932933	4.14
50	13	1	0.5897	-6.516797	-9.932933	4.96064
51	13	1	0.5897	-6.10742	-9.223873	3.87136
52	13	3	-1.1794	-6.451418	-9.819693	4.228157
53	14	2	0	-2.606797	-3.160633	4.14
54	14	1	0.5897	-2.606797	-3.160633	4.96064
55	14	1	0.5897	-2.19742	-2.451573	3.87136
56	14	3	-1.1794	-2.541418	-3.047393	4.228157
57	15	2	0	-5.213203	-7.675048	3.22
58	15	1	0.5897	-5.62258	-6.961925	3.496
59	15	1	0.5897	-4.39093	-7.673016	3.496
60	15	3	-1.1794	-5.14765	-7.561507	3.307638
61	16	2	0	-2.606406	-12.19014	4.14
62	16	1	0.5897	-2.606406	-12.19014	4.96064
63	16	1	0.5897	-3.42516	-12.19014	3.87136
64	16	3	-1.1794	-2.737164	-12.19014	4.228157
65	17	2	0	-1.303203	-0.902748	3.22
66	17	1	0.5897	-1.71258	-0.189625	3.496
67	17	1	0.5897	-0.48093	-0.900716	3.496
68	17	3	-1.1794	-1.23765	-0.789207	3.307638
69	18	2	0	-6.516406	-5.41784	4.14
70	18	1	0.5897	-6.516406	-5.41784	4.96064
71	18	1	0.5897	-7.33516	-5.41784	3.87136
72	18	3	-1.1794	-6.647164	-5.41784	4.228157
73	19	2	0	-5.213594	-12.19014	3.22
74	19	1	0.5897	-5.62649	-11.479049	3.496
75	19	1	0.5897	-5.62649	-12.901232	3.496
76	19	3	-1.1794	-5.3447	-12.19014	3.307638
77	20	2	0	-1.303594	-5.41784	3.22
78	20	1	0.5897	-1.71649	-4.706749	3.496
79	20	1	0.5897	-1.71649	-6.128932	3.496
80	20	3	-1.1794	-1.4347	-5.41784	3.307638
81	21	2	0	-5.213594	-12.19014	0.46
82	21	1	0.5897	-5.213594	-12.19014	1.28064
83	21	1	0.5897	-4.39484	-12.19014	0.19136
84	21	3	-1.1794	-5.082836	-12.19014	0.548157
85	22	2	0	-1.303594	-5.41784	0.46
86	22	1	0.5897	-1.303594	-5.41784	1.28064
87	22	1	0.5897	-0.48484	-5.41784	0.19136
88	22	3	-1.1794	-1.172836	-5.41784	0.548157
89	23	2	0	-2.606406	-12.19014	6.9
90	23	1	0.5897	-2.19351	-11.479049	7.176
91	23	1	0.5897	-2.19351	-12.901232	7.176
92	23	3	-1.1794	-2.4753	-12.19014	6.987638
93	24	2	0	-6.516406	-5.41784	6.9
94	24	1	0.5897	-6.10351	-4.706749	7.176
95	24	1	0.5897	-6.10351	-6.128932	7.176
96	24	3	-1.1794	-6.3853	-5.41784	6.987638
97	25	2	0	-1.303203	3.611667	3.22
98	25	1	0.5897	-1.71258	2.898544	3.496
99	25	1	0.5897	-0.48093	3.609636	3.496
100	25	3	-1.1794	-1.23765	3.498126	3.307638
101	26	2	0	-5.213203	10.383967	3.22
102	26	1	0.5897	-5.62258	9.670844	3.496
103	26	1	0.5897	-4.39093	10.381936	3.496
104	26	3	-1.1794	-5.14765	10.270426	3.307638
105	27	2	0	-1.303203	3.611667	0.46
106	27	1	0.5897	-1.303203	3.611667	1.28064
107	27	1	0.5897	-1.71258	4.320727	0.19136
108	27	3	-1.1794	-1.368582	3.724907	0.548157
109	28	2	0	-2.606797	5.869552	4.14
110	28	1	0.5897	-2.606797	5.869552	4.96064
111	28	1	0.5897	-2.19742	5.160492	3.87136
112	28	3	-1.1794	-2.541418	5.756312	4.228157
113	29	2	0	-5.213203	10.383967	0.46
114	29	1	0.5897	-5.213203	10.383967	1.28064
115	29	1	0.5897	-5.62258	11.093027	0.19136
116	29	3	-1.1794	-5.278582	10.497207	0.548157
117	30	2	0	-6.516797	12.641852	4.14
118	30	1	0.5897	-6.516797	12.641852	4.96064
119	30	1	0.5897	-6.10742	11.932792	3.87136
120	30	3	-1.1794	-6.451418	12.528612	4.228157
121	31	2	0	-5.213203	5.869552	0.46
122	31	1	0.5897	-5.213203	5.869552	1.28064
123	31	1	0.5897	-5.62258	5.160492	0.19136
124	31	3	-1.1794	-5.278582	5.756312	0.548157
125	32	2	0	-1.303203	12.641852	0.46
126	32	1	0.5897	-1.303203	12.641852	1.28064
127	32	1	0.5897	-1.71258	11.932792	0.19136
128	32	3	-1.1794	-1.368582	12.528612	0.548157
129	33	2	0	-2.606797	5.869552	6.9
130	33	1	0.5897	-2.19742	6.582675	7.176
131	33	1	0.5897	-3.42907	5.871584	7.176
132	33	3	-1.1794	-2.67235	5.983093	6.987638
133	34	2	0	-6.516797	3.611667	6.9
134	34	1	0.5897	-6.10742	2.898544	7.176
135	34	1	0.5897	-7.33907	3.609636	7.176
136	34	3	-1.1794	-6.58235	3.498126	6.987638
137	35	2	0	-6.516797	12.641852	6.9
138	35	1	0.5897	-6.10742	13.354975	7.176
139	35	1	0.5897	-7.33907	12.643884	7.176
140	35	3	-1.1794	-6.58235	12.755393	6.987638
141	36	2	0	-2.606797	10.383967	6.9
142	36	1	0.5897	-2.19742	9.670844	7.176
143	36	1	0.5897	-3.42907	10.381936	7.176
144	36	3	-1.1794	-2.67235	10.270426	6.987638
145	37	2	0	-6.516797	3.611667	4.14
146	37	1	0.5897	-6.516797	3.611667	4.96064
147	37	1	0.5897	-6.10742	4.320727	3.87136
148	37	3	-1.1794	-6.451418	3.724907	4.228157
149	38	2	0	-2.606797	10.383967	4.14
150	38	1	0.5897	-2.606797	10.383967	4.96064
151	38	1	0.5897	-2.19742	11.093027	3.87136
152	38	3	-1.1794	-2.541418	10.497207	4.228157
153	39	2	0	-5.213203	5.869552	3.22
154	39	1	0.5897	-5.62258	6.582675	3.496
155	39	1	0.5897	-4.39093	5.871584	3.496
156	39	3	-1.1794	-5.14765	5.983093	3.307638
157	40	2	0	-2.606406	1.35446	4.14
158	40	1	0.5897	-2.606406	1.35446	4.96064
159	40	1	0.5897	-3.42516	1.35446	3.87136
160	40	3	-1.1794	-2.737164	1.35446	4.228157
161	41	2	0	-1.303203	12.641852	3.22
162	41	1	0.5897	-1.71258	13.354975	3.496
163	41	1	0.5897	-0.48093	12.643884	3.496
164	41	3	-1.1794	-1.23765	12.755393	3.307638
165	42	2	0	-6.516406	8.12676	4.14
166	42	1	0.5897	-6.516406	8.12676	4.96064
167	42	1	0.5897	-7.33516	8.12676	3.87136
168	42	3	-1.1794	-6.647164	8.12676	4.228157
169	43	2	0	-5.213594	1.35446	3.22
170	43	1	0.5897	-5.62649	2.065551	3.496
171	43	1	0.5897	-5.62649	0.643368	3.496
172	43	3	-1.1794	-5.3447	1.35446	3.307638
173	44	2	0	-1.303594	8.12676	3.22
174	44	1	0.5897	-1.71649	8.837851	3.496
175	44	1	0.5897	-1.71649	7.415668	3.496
176	44	3	-1.1794	-1.4347	8.12676	3.307638
177	45	2	0	-5.213594	1.35446	0.46
178	45	1	0.5897	-5.213594	1.35446	1.28064
179	45	1	0.5897	-4.39484	1.35446	0.19136
180	45	3	-1.1794	-5.082836	1.35446	0.548157
181	46	2	0	-1.303594	8.12676	0.46
182	46	1	0.5897	-1.303594	8.12676	1.28064
183	46	1	0.5897	-0.48484	8.12676	0.19136
184	46	3	-1.1794	-1.172836	8.12676	0.548157
185	47	2	0	-2.606406	1.35446	6.9
186	47	1	0.5897	-2.19351	2.065551	7.176
187	47	1	0.5897	-2.19351	0.643368	7.176
188	47	3	-1.1794	-2.4753	1.35446	6.987638
189	48	2	0	-6.516406	8.12676	6.9
190	48	1	0.5897	-6.10351	8.837851	7.176
191	48	1	0.5897	-6.10351	7.415668	7.176
192	48	3	-1.1794	-6.3853	8.12676	6.987638
193	49	2	0	-1.303203	17.156267	3.22
194	49	1	0.5897	-1.71258	16.443144	3.496
195	49	1	0.5897	-0.48093	17.154236	3.496
196	49	3	-1.1794	-1.23765	17.042726	3.307638
197	50	2	0	-5.213203	23.928567	3.22
198	50	1	0.5897	-5.62258	23.215444	3.496
199	50	1	0.5897	-4.39093	23.926536	3.496
200	50	3	-1.1794	-5.14765	23.815026	3.307638
201	51	2	0	-1.303203	17.156267	0.46
202	51	1	0.5897	-1.303203	17.156267	1.28064
203	51	1	0.5897	-1.71258	17.865327	0.19136
204	51	3	-1.1794	-1.368582	17.269507	0.548157
205	52	2	0	-2.606797	19.414152	4.14
206	52	1	0.5897	-2.606797	19.414152	4.96064
207	52	1	0.5897	-2.19742	18.705092	3.87136
208	52	3	-1.1794	-2.541418	19.300912	4.228157
209	53	2	0	-5.213203	23.928567	0.46
210	53	1	0.5897	-5.213203	23.928567	1.28064
211	53	1	0.5897	-5.62258	24.637627	0.19136
212	53	3	-1.1794	-5.278582	24.041807	0.548157
213	54	2	0	-6.516797	26.186452	4.14
214	54	1	0.5897	-6.516797	26.186452	4.96064
215	54	1	0.5897	-6.10742	25.477392	3.87136
216	54	3	-1.1794	-6.451418	26.073212	4.228157
217	55	2	0	-5.213203	19.414152	0.46
218	55	1	0.5897	-5.213203	19.414152	1.28064
219	55	1	0.5897	-5.62258	18.705092	0.19136
220	55	3	-1.1794	-5.278582	19.300912	0.548157
221	56	2	0	-1.303203	26.186452	0.46
222	56	1	0.5897	-1.303203	26.186452	1.28064
223	56	1	0.5897	-1.71258	25.477392	0.19136
224	56	3	-1.1794	-1.368582	26.073212	0.548157
225	57	2	0	-2.606797	19.414152	6.9
226	57	1	0.5897	-2.19742	20.127275	7.176
227	57	1	0.5897	-3.42907	19.416184	7.176
228	57	3	-1.1794	-2.67235	19.527693	6.987638
229	58	2	0	-6.516797	17.156267	6.9
230	58	1	0.5897	-6.10742	16.443144	7.176
231	58	1	0.5897	-7.33907	17.154236	7.176
232	58	3	-1.1794	-6.58235	17.042726	6.987638
233	59	2	0	-6.516797	26.186452	6.9
234	59	1	0.5897	-6.10742	26.899575	7.176
235	59	1	0.5897	-7.33907	26.188484	7.176
236	59	3	-1.1794	-6.58235	26.299993	6.987638
237	60	2	0	-2.606797	23.928567	6.9
238	60	1	0.5897	-2.19742	23.215444	7.176
239	60	1	0.5897	-3.42907	23.926536	7.176
240	60	3	-1.1794	-2.67235	23.815026	6.987638
241	61	2	0	-6.516797	17.156267	4.14
242	61	1	0.5897	-6.516797	17.156267	4.96064
243	61	1	0.5897	-6.10742	17.865327	3.87136
244	61	3	-1.1794	-6.451418	17.269507	4.228157
245	62	2	0	-2.606797	23.928567	4.14
246	62	1	0.5897	-2.606797	23.928567	4.96064
247	62	1	0.5897	-2.19742	24.637627	3.87136
248	62	3	-1.1794	-2.541418	24.041807	4.228157
249	63	2	0	-5.213203	19.414152	3.22
250	63	1	0.5897	-5.62258	20.127275	3.496
251	63	1	0.5897	-4.39093	19.416184	3.496
252	63	3	-1.1794	-5.14765	19.527693	3.307638
253	64	2	0	-2.606406	14.89906	4.14
254	64	1	0.5897	-2.606406	14.89906	4.96064
255	64	1	0.5897	-3.42516	14.89906	3.87136
256	64	3	-1.1794	-2.737164	14.89906	4.228157
257	65	2	0	-1.303203	26.186452	3.22
258	65	1	0.5897	-1.71258	26.899575	3.496
259	65	1	0.5897	-0.48093	26.188484	3.496
260	65	3	-1.1794	-1.23765	26.299993	3.307638
261	66	2	0	-6.516406	21.67136	4.14
262	66	1	0.5897	-6.516406	21.67136	4.96064
263	66	1	0.5897	-7.33516	21.67136	3.87136
264	66	3	-1.1794	-6.647164	21.67136	4.228157
265	67	2	0	-5.213594	14.89906	3.22
266	67	1	0.5897	-5.62649	15.610151	3.496
267	67	1	0.5897	-5.62649	14.187968	3.496
268	67	3	-1.1794	-5.3447	14.89906	3.307638
269	68	2	0	-1.303594	21.67136	3.22
270	68	1	0.5897	-1.71649	22.382451	3.496
271	68	1	0.5897	-1.71649	20.960268	3.496
272	68	3	-1.1794	-1.4347	21.67136	3.307638
273	69	2	0	-5.213594	14.89906	0.46
274	69	1	0.5897	-5.213594	14.89906	1.28064
275	69	1	0.5897	-4.39484	14.89906	0.19136
276	69	3	-1.1794	-5.082836	14.89906	0.548157
277	70	2	0	-1.303594	21.67136	0.46
278	70	1	0.5897	-1.303594	21.67136	1.28064
279	70	1	0.5897	-0.48484	21.67136	0.19136
280	70	3	-1.1794	-1.172836	21.67136	0.548157
281	71	2	0	-2.606406	14.89906	6.9
282	71	1	0.5897	-2.19351	15.610151	7.176
283	71	1	0.5897	-2.19351	14.187968	7.176
284	71	3	-1.1794	-2.4753	14.89906	6.987638
285	72	2	0	-6.516406	21.67136	6.9
286	72	1	0.5897	-6.10351	22.382451	7.176
287	72	1	0.5897	-6.10351	20.960268	7.176
288	72	3	-1.1794	-6.3853	21.67136	6.987638
289	73	2	0	-1.303203	30.700867	3.22
290	73	1	0.5897	-1.71258	29.987744	3.496
291	73	1	0.5897	-0.48093	30.698836	3.496
292	73	3	-1.1794	-1.23765	30.587326	3.307638
293	74	2	0	-5.213203	37.473167	3.22
294	74	1	0.5897	-5.62258	36.760044	3.496
295	74	1	0.5897	-4.39093	37.471136	3.496
296	74	3	-1.1794	-5.14765	37.359626	3.307638
297	75	2	0	-1.303203	30.700867	0.46
298	75	1	0.5897	-1.303203	30.700867	1.28064
299	75	1	0.5897	-1.71258	31.409927	0.19136
300	75	3	-1.1794	-1.368582	30.814107	0.548157
301	76	2	0	-2.606797	32.958752	4.14
302	76	1	0.5897	-2.606797	32.958752	4.96064
303	76	1	0.5897	-2.19742	32.249692	3.87136
304	76	3	-1.1794	-2.541418	32.845512	4.228157
305	77	2	0	-5.213203	37.473167	0.46
306	77	1	0.5897	-5.213203	37.473167	1.28064
307	77	1	0.5897	-5.62258	38.182227	0.19136
308	77	3	-1.1794	-5.278582	37.586407	0.548157
309	78	2	0	-6.516797	39.731052	4.14
310	78	1	0.5897	-6.516797	39.731052	4.96064
311	78	1	0.5897	-6.10742	39.021992	3.87136
312	78	3	-1.1794	-6.451418	39.617812	4.228157
313	79	2	0	-5.213203	32.958752	0.46
314	79	1	0.5897	-5.213203	32.958752	1.28064
315	79	1	0.5897	-5.62258	32.249692	0.19136
316	79	3	-1.1794	-5.278582	32.845512	0.548157
317	80	2	0	-1.303203	39.731052	0.46
318	80	1	0.5897	-1.303203	39.731052	1.28064
319	80	1	0.5897	-1.71258	39.021992	0.19136
320	80	3	-1.1794	-1.368582	39.617812	0.548157
321	81	2	0	-2.606797	32.958752	6.9
322	81	1	0.5897	-2.19742	33.671875	7.176
323	81	1	0.5897	-3.42907	32.960784	7.176
324	81	3	-1.1794	-2.67235	33.072293	6.987638
325	82	2	0	-6.516797	30.700867	6.9
326	82	1	0.5897	-6.10742	29.987744	7.176
327	82	1	0.5897	-7.33907	30.698836	7.176
328	82	3	-1.1794	-6.58235	30.587326	6.987638
329	83	2	0	-6.516797	39.731052	6.9
330	83	1	0.5897	-6.10742	40.444175	7.176
331	83	1	0.5897	-7.33907	39.733084	7.176
332	83	3	-1.1794	-6.58235	39.844593	6.987638
333	84	2	0	-2.606797	37.473167	6.9
334	84	1	0.5897	-2.19742	36.760044	7.176
335	84	1	0.5897	-3.42907	37.471136	7.176
336	84	3	-1.1794	-2.67235	37.359626	6.987638
337	85	2	0	-6.516797	30.700867	4.14
338	85	1	0.5897	-6.516797	30.700867	4.96064
339	85	1	0.5897	-6.10742	31.409927	3.87136
340	85	3	-1.1794	-6.451418	30.814107	4.228157
341	86	2	0	-2.606797	37.473167	4.14
342	86	1	0.5897	-2.606797	37.473167	4.96064
343	86	1	0.5897	-2.19742	38.182227	3.87136
344	86	3	-1.1794	-2.541418	37.586407	4.228157
345	87	2	0	-5.213203	32.958752	3.22
346	87	1	0.5897	-5.62258	33.671875	3.496
347	87	1	0.5897	-4.39093	32.960784	3.496
348	87	3	-1.1794	-5.14765	33.072293	3.307638
349	88	2	0	-2.606406	28.44366	4.14
350	88	1	0.5897	-2.606406	28.44366	4.96064
351	88	1	0.5897	-3.42516	28.44366	3.87136
352	88	3	-1.1794	-2.737164	28.44366	4.228157
353	89	2	0	-1.303203	39.731052	3.22
354	89	1	0.5897	-1.71258	40.444175	3.496
355	89	1	0.5897	-0.48093	39.733084	3.496
356	89	3	-1.1794	-1.23765	39.844593	3.307638
357	90	2	0	-6.516406	35.21596	4.14
358	90	1	0.5897	-6.516406	35.21596	4.96064
359	90	1	0.5897	-7.33516	35.21596	3.87136
360	90	3	-1.1794	-6.647164	35.21596	4.228157
361	91	2	0	-5.213594	28.44366	3.22
362	91	1	0.5897	-5.62649	29.154751	3.496
363	91	1	0.5897	-5.62649	27.732568	3.496
364	91	3	-1.1794	-5.3447	28.44366	3.307638
365	92	2	0	-1.303594	35.21596	3.22
366	92	1	0.5897	-1.71649	35.927051	3.496
367	92	1	0.5897	-1.71649	34.504868	3.496
368	92	3	-1.1794	-1.4347	35.21596	3.307638
369	93	2	0	-5.213594	28.44366	0.46
370	93	1	0.5897	-5.213594	28.44366	1.28064
371	93	1	0.5897	-4.39484	28.44366	0.19136
372	93	3	-1.1794	-5.082836	28.44366	0.548157
373	94	2	0	-1.303594	35.21596	0.46
374	94	1	0.5897	-1.303594	35.21596	1.28064
375	94	1	0.5897	-0.48484	35.21596	0.19136
376	94	3	-1.1794	-1.172836	35.21596	0.548157
377	95	2	0	-2.606406	28.44366	6.9
378	95	1	0.5897	-2.19351	29.154751	7.176
379	95	1	0.5897	-2.19351	27.732568	7.176
380	95	3	-1.1794	-2.4753	28.44366	6.987638
381	96	2	0	-6.516406	35.21596	6.9
382	96	1	0.5897	-6.10351	35.927051	7.176
383	96	1	0.5897	-6.10351	34.504868	7.176
384	96	3	-1.1794	-6.3853	35.21596	6.987638
385	97	2	0	6.516797	-9.932933	3.22
386	97	1	0.5897	6.10742	-10.646056	3.496
387	97	1	0.5897	7.33907	-9.934964	3.496
388	97	3	-1.1794	6.58235	-10.046474	3.307638
389	98	2	0	2.606797	-3.160633	3.22
390	98	1	0.5897	2.19742	-3.873756	3.496
391	98	1	0.5897	3.42907	-3.162664	3.496
392	98	3	-1.1794	2.67235	-3.274174	3.307638
393	99	2	0	6.516797	-9.932933	0.46
394	99	1	0.5897	6.516797	-9.932933	1.28064
395	99	1	0.5897	6.10742	-9.223873	0.19136
396	99	3	-1.1794	6.451418	-9.819693	0.548157
397	100	2	0	5.213203	-7.675048	4.14
398	100	1	0.5897	5.213203	-7.675048	4.96064
399	100	1	0.5897	5.62258	-8.384108	3.87136
400	100	3	-1.1794	5.278582	-7.788288	4.228157
401	101	2	0	2.606797	-3.160633	0.46
402	101	1	0.5897	2.606797	-3.160633	1.28064
403	101	1	0.5897	2.19742	-2.451573	0.19136
404	101	3	-1.1794	2.541418	-3.047393	0.548157
405	102	2	0	1.303203	-0.902748	4.14
406	102	1	0.5897	1.303203	-0.902748	4.96064
407	102	1	0.5897	1.71258	-1.611808	3.87136
408	102	3	-1.1794	1.368582	-1.015988	4.228157
409	103	2	0	2.606797	-7.675048	0.46
410	103	1	0.5897	2.606797	-7.675048	1.28064
411	103	1	0.5897	2.19742	-8.384108	0.19136
412	103	3	-1.1794	2.541418	-7.788288	0.548157
413	104	2	0	6.516797	-0.902748	0.46
414	104	1	0.5897	6.516797	-0.902748	1.28064
415	104	1	0.5897	6.10742	-1.611808	0.19136
416	104	3	-1.1794	6.451418	-1.015988	0.548157
417	105	2	0	5.213203	-7.675048	6.9
418	105	1	0.5897	5.62258	-6.961925	7.176
419	105	1	0.5897	4.39093	-7.673016	7.176
420	105	3	-1.1794	5.14765	-7.561507	6.987638
421	106	2	0	1.303203	-9.932933	6.9
422	106	1	0.5897	1.71258	-10.646056	7.176
423	106	1	0.5897	0.48093	-9.934964	7.176
424	106	3	-1.1794	1.23765	-10.046474	6.987638
425	107	2	0	1.303203	-0.902748	6.9
426	107	1	0.5897	1.71258	-0.189625	7.176
427	107	1	0.5897	0.48093	-0.900716	7.176
428	107	3	-1.1794	1.23765	-0.789207	6.987638
429	108	2	0	5.213203	-3.160633	6.9
430	108	1	0.5897	5.62258	-3.873756	7.176
431	108	1	0.5897	4.39093	-3.162664	7.176
432	108	3	-1.1794	5.14765	-3.274174	6.987638
433	109	2	0	1.303203	-9.932933	4.14
434	109	1	0.5897	1.303203	-9.932933	4.96064
435	109	1	0.5897	1.71258	-9.223873	3.87136
436	109	3	-1.1794	1.368582	-9.819693	4.228157
437	110	2	0	5.213203	-3.160633	4.14
438	110	1	0.5897	5.213203	-3.160633	4.96064
439	110	1	0.5897	5.62258	-2.451573	3.87136
440	110	3	-1.1794	5.278582	-3.047393	4.228157
441	111	2	0	2.606797	-7.675048	3.22
442	111	1	0.5897	2.19742	-6.961925	3.496
443	111	1	0.5897	3.42907	-7.673016	3.496
444	111	3	-1.1794	2.67235	-7.561507	3.307638
445	112	2	0	5.213594	-12.19014	4.14
446	112	1	0.5897	5.213594	-12.19014	4.96064
447	112	1	0.5897	4.39484	-12.19014	3.87136
448	112	3	-1.1794	5.082836	-12.19014	4.228157
449	113	2	0	6.516797	-0.902748	3.22
450	113	1	0.5897	6.10742	-0.189625	3.496
451	113	1	0.5897	7.33907	-0.900716	3.496
452	113	3	-1.1794	6.58235	-0.789207	3.307638
453	114	2	0	1.303594	-5.41784	4.14
454	114	1	0.5897	1.303594	-5.41784	4.96064
455	114	1	0.5897	0.48484	-5.41784	3.87136
456	114	3	-1.1794	1.172836	-5.41784	4.228157
457	115	2	0	2.606406	-12.19014	3.22
458	115	1	0.5897	2.19351	-11.479049	3.496
459	115	1	0.5897	2.19351	-12.901232	3.496
460	115	3	-1.1794	2.4753	-12.19014	3.307638
461	116	2	0	6.516406	-5.41784	3.22
462	116	1	0.5897	6.10351	-4.706749	3.496
463	116	1	0.5897	6.10351	-6.128932	3.496
464	116	3	-1.1794	6.3853	-5.41784	3.307638
465	117	2	0	2.606406	-12.19014	0.46
466	117	1	0.5897	2.606406	-12.19014	1.28064
467	117	1	0.5897	3.42516	-12.19014	0.19136
468	117	3	-1.1794	2.737164	-12.19014	0.548157
469	118	2	0	6.516406	-5.41784	0.46
470	118	1	0.5897	6.516406	-5.41784	1.28064
471	118	1	0.5897	7.33516	-5.41784	0.19136
472	118	3	-1.1794	6.647164	-5.41784	0.548157
473	119	2	0	5.213594	-12.19014	6.9
474	119	1	0.5897	5.62649	-11.479049	7.176
475	119	1	0.5897	5.62649	-12.901232	7.176
476	119	3	-1.1794	5.3447	-12.19014	6.987638
477	120	2	0	1.303594	-5.41784	6.9
478	120	1	0.5897	1.71649	-4.706749	7.176
479	120	1	0.5897	1.71649	-6.128932	7.176
480	120	3	-1.1794	1.4347	-5.41784	6.987638
481	121	2	0	6.516797	3.611667	3.22
482	121	1	0.5897	6.10742	2.898544	3.496
483	121	1	0.5897	7.33907	3.609636	3.496
484	121	3	-1.1794	6.58235	3.498126	3.307638
485	122	2	0	2.606797	10.383967	3.22
486	122	1	0.5897	2.19742	9.670844	3.496
487	122	1	0.5897	3.42907	10.381936	3.496
488	122	3	-1.1794	2.67235	10.270426	3.307638
489	123	2	0	6.516797	3.611667	0.46
490	123	1	0.5897	6.516797	3.611667	1.28064
491	123	1	0.5897	6.10742	4.320727	0.19136
492	123	3	-1.1794	6.451418	3.724907	0.548157
493	124	2	0	5.213203	5.869552	4.14
494	124	1	0.5897	5.213203	5.869552	4.96064
495	124	1	0.5897	5.62258	5.160492	3.87136
496	124	3	-1.1794	5.278582	5.756312	4.228157
497	125	2	0	2.606797	10.383967	0.46
498	125	1	0.5897	2.606797	10.383967	1.28064
499	125	1	0.5897	2.19742	11.093027	0.19136
500	125	3	-1.1794	2.541418	10.497207	0.548157
501	126	2	0	1.303203	12.641852	4.14
502	126	1	0.5897	1.303203	12.641852	4.96064
503	126	1	0.5897	1.71258	11.932792	3.87136
504	126	3	-1.1794	1.368582	12.528612	4.228157
505	127	2	0	2.606797	5.869552	0.46
506	127	1	0.5897	2.606797	5.869552	1.28064
507	127	1	0.5897	2.19742	5.160492	0.19136
508	127	3	-1.1794	2.541418	5.756312	0.548157
509	128	2	0	6.516797	12.641852	0.46
510	128	1	0.5897	6.516797	12.641852	1.28064
511	128	1	0.5897	6.10742	11.932792	0.19136
512	128	3	-1.1794	6.451418	12.528612	0.548157
513	129	2	0	5.213203	5.869552	6.9
514	129	1	0.5897	5.62258	6.582675	7.176
515	129	1	0.5897	4.39093	5.871584	7.176
516	129	3	-1.1794	5.14765	5.983093	6.987638
517	130	2	0	1.303203	3.611667	6.9
518	130	1	0.5897	1.71258	2.898544	7.176
519	130	1	0.5897	0.48093	3.609636	7.176
520	130	3	-1.1794	1.23765	3.498126	6.987638
521	131	2	0	1.303203	12.641852	6.9
522	131	1	0.5897	1.71258	13.354975	7.176
523	131	1	0.5897	0.48093	12.643884	7.176
524	131	3	-1.1794	1.23765	12.755393	6.987638
525	132	2	0	5.213203	10.383967	6.9
526	132	1	0.5897	5.62258	9.670844	7.176
527	132	1	0.5897	4.39093	10.381936	7.176
528	132	3	-1.1794	5.14765	10.270426	6.987638
529	133	2	0	1.303203	3.611667	4.14
530	133	1	0.5897	1.303203	3.611667	4.96064
531	133	1	0.5897	1.71258	4.320727	3.87136
532	133	3	-1.1794	1.368582	3.724907	4.228157
533	134	2	0	5.213203	10.383967	4.14
534	134	1	0.5897	5.213203	10.383967	4.96064
535	134	1	0.5897	5.62258	11.093027	3.87136
536	134	3	-1.1794	5.278582	10.497207	4.228157
537	135	2	0	2.606797	5.869552	3.22
538	135	1	0.5897	2.19742	6.582675	3.496
539	135	1	0.5897	3.42907	5.871584	3.496
540	135	3	-1.1794	2.67235	5.983093	3.307638
541	136	2	0	5.213594	1.35446	4.14
542	136	1	0.5897	5.213594	1.35446	4.96064
543	136	1	0.5897	4.39484	1.35446	3.87136
544	136	3	-1.1794	5.082836	1.35446	4.228157
545	137	2	0	6.516797	12.641852	3.22
546	137	1	0.5897	6.10742	13.354975	3.496
547	137	1	0.5897	7.33907	12.643884	3.496
548	137	3	-1.1794	6.58235	12.755393	3.307638
549	138	2	0	1.303594	8.12676	4.14
550	138	1	0.5897	1.303594	8.12676	4.96064
551	138	1	0.5897	0.48484	8.12676	3.87136
552	138	3	-1.1794	1.172836	8.12676	4.228157
553	139	2	0	2.606406	1.35446	3.22
554	139	1	0.5897	2.19351	2.065551	3.496
555	139	1	0.5897	2.19351	0.643368	3.496
556	139	3	-1.1794	2.4753	1.35446	3.307638
557	140	2	0	6.516406	8.12676	3.22
558	140	1	0.5897	6.10351	8.837851	3.496
559	140	1	0.5897	6.10351	7.415668	3.496
560	140	3	-1.1794	6.3853	8.12676	3.307638
561	141	2	0	2.606406	1.35446	0.46
562	141	1	0.5897	2.606406	1.35446	1.28064
563	141	1	0.5897	3.42516	1.35446	0.19136
564	141	3	-1.1794	2.737164	1.35446	0.548157
565	142	2	0	6.516406	8.12676	0.46
566	142	1	0.5897	6.516406	8.12676	1.28064
567	142	1	0.5897	7.33516	8.12676	0.19136
568	142	3	-1.1794	6.647164	8.12676	0.548157
569	143	2	0	5.213594	1.35446	6.9
570	143	1	0.5897	5.62649	2.065551	7.176
571	143	1	0.5897	5.62649	0.643368	7.176
572	143	3	-1.1794	5.3447	1.35446	6.987638
573	144	2	0	1.303594	8.12676	6.9
574	144	1	0.5897	1.71649	8.837851	7.176
575	144	1	0.5897	1.71649	7.415668	7.176
576	144	3	-1.1794	1.4347	8.12676	6.987638
577	145	2	0	6.516797	17.156267	3.22
578	145	1	0.5897	6.10742	16.443144	3.496
579	145	1	0.5897	7.33907	17.154236	3.496
580	145	3	-1.1794	6.58235	17.042726	3.307638
581	146	2	0	2.606797	23.928567	3.22
582	146	1	0.5897	2.19742	23.215444	3.496
583	146	1	0.5897	3.42907	23.926536	3.496
584	146	3	-1.1794	2.67235	23.815026	3.307638
585	147	2	0	6.516797	17.156267	0.46
586	147	1	0.5897	6.516797	17.156267	1.28064
587	147	1	0.5897	6.10742	17.865327	0.19136
588	147	3	-1.1794	6.451418	17.269507	0.548157
589	148	2	0	5.213203	19.414152	4.14
590	148	1	0.5897	5.213203	19.414152	4.96064
591	148	1	0.5897	5.62258	18.705092	3.87136
592	148	3	-1.1794	5.278582	19.300912	4.228157
593	149	2	0	2.606797	23.928567	0.46
594	149	1	0.5897	2.606797	23.928567	1.28064
595	149	1	0.5897	2.19742	24.637627	0.19136
596	149	3	-1.1794	2.541418	24.041807	0.548157
597	150	2	0	1.303203	26.186452	4.14
598	150	1	0.5897	1.303203	26.186452	4.96064
599	150	1	0.5897	1.71258	25.477392	3.87136
600	150	3	-1.1794	1.368582	26.073212	4.228157
601	151	2	0	2.606797	19.414152	0.46
602	151	1	0.5897	2.606797	19.414152	1.28064
603	151	1	0.5897	2.19742	18.705092	0.19136
604	151	3	-1.1794	2.541418	19.300912	0.548157
605	152	2	0	6.516797	26.186452	0.46
606	152	1	0.5897	6.516797	26.186452	1.28064
607	152	1	0.5897	6.10742	25.477392	0.19136
608	152	3	-1.1794	6.451418	26.073212	0.548157
609	153	2	0	5.213203	19.414152	6.9
610	153	1	0.5897	5.62258	20.127275	7.176
611	153	1	0.5897	4.39093	19.416184	7.176
612	153	3	-1.1794	5.14765	19.527693	6.987638
613	154	2	0	1.303203	17.156267	6.9
614	154	1	0.5897	1.71258	16.443144	7.176
615	154	1	0.5897	0.48093	17.154236	7.176
616	154	3	-1.1794	1.23765	17.042726	6.987638
617	155	2	0	1.303203	26.186452	6.9
618	155	1	0.5897	1.71258	26.899575	7.176
619	155	1	0.5897	0.48093	26.188484	7.176
620	155	3	-1.1794	1.23765	26.299993	6.987638
621	156	2	0	5.213203	23.928567	6.9
622	156	1	0.5897	5.62258	23.215444	7.176
623	156	1	0.5897	4.39093	23.926536	7.176
624	156	3	-1.1794	5.14765	23.815026	6.987638
625	157	2	0	1.303203	17.156267	4.14
626	157	1	0.5897	1.303203	17.156267	4.96064
627	157	1	0.5897	1.71258	17.865327	3.87136
628	157	3	-1.1794	1.368582	17.269507	4.228157
629	158	2	0	5.213203	23.928567	4.14
630	158	1	0.5897	5.213203	23.928567	4.96064
631	158	1	0.5897	5.62258	24.637627	3.87136
632	158	3	-1.1794	5.278582	24.041807	4.228157
633	159	2	0	2.606797	19.414152	3.22
634	159	1	0.5897	2.19742	20.127275	3.496
635	159	1	0.5897	3.42907	19.416184	3.496
636	159	3	-1.1794	2.67235	19.527693	3.307638
637	160	2	0	5.213594	14.89906	4.14
638	160	1	0.5897	5.213594	14.89906	4.96064
639	160	1	0.5897	4.39484	14.89906	3.87136
640	160	3	-1.1794	5.082836	14.89906	4.228157
641	161	2	0	6.516797	26.186452	3.22
642	161	1	0.5897	6.10742	26.899575	3.496
643	161	1	0.5897	7.33907	26.188484	3.496
644	161	3	-1.1794	6.58235	26.299993	3.307638
645	162	2	0	1.303594	21.67136	4.14
646	162	1	0.5897	1.303594	21.67136	4.96064
647	162	1	0.5897	0.48484	21.67136	3.87136
648	162	3	-1.1794	1.172836	21.67136	4.228157
649	163	2	0	2.606406	14.89906	3.22
650	163	1	0.5897	2.19351	15.610151	3.496
651	163	1	0.5897	2.19351	14.187968	3.496
652	163	3	-1.1794	2.4753	14.89906	3.307638
653	164	2	0	6.516406	21.67136	3.22
654	164	1	0.5897	6.10351	22.382451	3.496
655	164	1	0.5897	6.10351	20.960268	3.496
656	164	3	-1.1794	6.3853	21.67136	3.307638
657	165	2	0	2.606406	14.89906	0.46
658	165	1	0.5897	2.606406	14.89906	1.28064
659	165	1	0.5897	3.42516	14.89906	0.19136
660	165	3	-1.1794	2.737164	14.89906	0.548157
661	166	2	0	6.516406	21.67136	0.46
662	166	1	0.5897	6.516406	21.67136	1.28064
663	166	1	0.5897	7.33516	21.67136	0.19136
664	166	3	-1.1794	6.647164	21.67136	0.548157
665	167	2	0	5.213594	14.89906	6.9
666	167	1	0.5897	5.62649	15.610151	7.176
667	167	1	0.5897	5.62649	14.187968	7.176
668	167	3	-1.1794	5.3447	14.89906	6.987638
669	168	2	0	1.303594	21.67136	6.9
670	168	1	0.5897	1.71649	22.382451	7.176
671	168	1	0.5897	1.71649	20.960268	7.176
672	168	3	-1.1794	1.4347	21.67136	6.987638
673	169	2	0	6.516797	30.700867	3.22
674	169	1	0.5897	6.10742	29.987744	3.496
675	169	1	0.5897	7.33907	30.698836	3.496
676	169	3	-1.1794	6.58235	30.587326	3.307638
677	170	2	0	2.606797	37.473167	3.22
678	170	1	0.5897	2.19742	36.760044	3.496
679	170	1	0.5897	3.42907	37.471136	3.496
680	170	3	-1.1794	2.67235	37.359626	3.307638
681	171	2	0	6.516797	30.700867	0.46
682	171	1	0.5897	6.516797	30.700867	1.28064
683	171	1	0.5897	6.10742	31.409927	0.19136
684	171	3	-1.1794	6.451418	30.814107	0.548157
685	172	2	0	5.213203	32.958752	4.14
686	172	1	0.5897	5.213203	32.958752	4.96064
687	172	1	0.5897	5.62258	32.249692	3.87136
688	172	3	-1.1794	5.278582	32.845512	4.228157
689	173	2	0	2.606797	37.473167	0.46
690	173	1	0.5897	2.606797	37.473167	1.28064
691	173	1	0.5897	2.19742	38.182227	0.19136
692	173	3	-1.1794	2.541418	37.586407	0.548157
693	174	2	0	1.303203	39.731052	4.14
694	174	1	0.5897	1.303203	39.731052	4.96064
695	174	1	0.5897	1.71258	39.021992	3.87136
696	174	3	-1.1794	1.368582	39.617812	4.228157
697	175	2	0	2.606797	32.958752	0.46
698	175	1	0.5897	2.606797	32.958752	1.28064
699	175	1	0.5897	2.19742	32.249692	0.19136
700	175	3	-1.1794	2.541418	32.845512	0.548157
701	176	2	0	6.516797	39.731052	0.46
702	176	1	0.5897	6.516797	39.731052	1.28064
703	176	1	0.5897	6.10742	39.021992	0.19136
704	176	3	-1.1794	6.451418	39.617812	0.548157
705	177	2	0	5.213203	32.958752	6.9
706	177	1	0.5897	5.62258	33.671875	7.176
707	177	1	0.5897	4.39093	32.960784	7.176
708	177	3	-1.1794	5.14765	33.072293	6.987638
709	178	2	0	1.303203	30.700867	6.9
710	178	1	0.5897	1.71258	29.987744	7.176
711	178	1	0.5897	0.48093	30.698836	7.176