ITEM: TIMESTEP
0
ITEM: NUMBER OF ATOMS
7776
ITEM: BOX BOUNDS pp pp pp
-7.0379999999999995e+01 7.0379999999999995e+01
0.0000000000000000e+00 1.2190140000000000e+02
0.0000000000000000e+00 6.6239999999999995e+01
ITEM: ATOMS id type xs ys zs
1 2 0.546297 0.585183 0.604167
2 1 0.543389 0.579333 0.608333
3 1 0.552139 0.585167 0.608333
4 3 0.546763 0.584252 0.60549
5 2 0.518519 0.640739 0.604167
6 1 0.515611 0.634889 0.608333
7 1 0.524361 0.640722 0.608333
8 3 0.518985 0.639807 0.60549
9 2 0.546297 0.585183 0.5625
10 1 0.546297 0.585183 0.574889
11 1 0.543389 0.591 0.558444
12 3 0.545833 0.586112 0.563831
13 2 0.537036 0.603706 0.618056
14 1 0.537036 0.603706 0.630444
15 1 0.539944 0.597889 0.614
16 3 0.537501 0.602777 0.619386
17 2 0.518519 0.640739 0.5625
18 1 0.518519 0.640739 0.574889
19 1 0.515611 0.646556 0.558444
20 3 0.518055 0.641668 0.563831
21 2 0.509258 0.659261 0.618056
22 1 0.509258 0.659261 0.630444
23 1 0.512167 0.653444 0.614
24 3 0.509723 0.658332 0.619386
25 2 0.518519 0.603706 0.5625
26 1 0.518519 0.603706 0.574889
27 1 0.515611 0.597889 0.558444
28 3 0.518055 0.602777 0.563831
29 2 0.546297 0.659261 0.5625
30 1 0.546297 0.659261 0.574889
31 1 0.543389 0.653444 0.558444
32 3 0.545833 0.658332 0.563831
33 2 0.537036 0.603706 0.659722
34 1 0.539944 0.609556 0.663889
35 1 0.531194 0.603722 0.663889
36 3 0.53657 0.604637 0.661045
37 2 0.509258 0.585183 0.659722
38 1 0.512167 0.579333 0.663889
39 1 0.503417 0.585167 0.663889
40 3 0.508793 0.584252 0.661045
41 2 0.509258 0.659261 0.659722
42 1 0.512167 0.665111 0.663889
43 1 0.503417 0.659278 0.663889
44 3 0.508793 0.660193 0.661045
45 2 0.537036 0.640739 0.659722
46 1 0.539944 0.634889 0.663889
47 1 0.531194 0.640722 0.663889
48 3 0.53657 0.639807 0.661045
49 2 0.509258 0.585183 0.618056
50 1 0.509258 0.585183 0.630444
51 1 0.512167 0.591 0.614
52 3 0.509723 0.586112 0.619386
53 2 0.537036 0.640739 0.618056
54 1 0.537036 0.640739 0.630444
55 1 0.539944 0.646556 0.614
56 3 0.537501 0.641668 0.619386
57 2 0.518519 0.603706 0.604167
58 1 0.515611 0.609556 0.608333
59 1 0.524361 0.603722 0.608333
60 3 0.518985 0.604637 0.60549
61 2 0.537039 0.566667 0.618056
62 1 0.537039 0.566667 0.630444
63 1 0.531222 0.566667 0.614
64 3 0.53611 0.566667 0.619386
65 2 0.546297 0.659261 0.604167
66 1 0.543389 0.665111 0.608333
67 1 0.552139 0.659278 0.608333
68 3 0.546763 0.660193 0.60549
69 2 0.509261 0.622222 0.618056
70 1 0.509261 0.622222 0.630444
71 1 0.503444 0.622222 0.614
72 3 0.508332 0.622222 0.619386
73 2 0.518517 0.566667 0.604167
74 1 0.515583 0.5725 0.608333
75 1 0.515583 0.560833 0.608333
76 3 0.517585 0.566667 0.60549
77 2 0.546294 0.622222 0.604167
78 1 0.543361 0.628056 0.608333
79 1 0.543361 0.616389 0.608333
80 3 0.545363 0.622222 0.60549
81 2 0.518517 0.566667 0.5625
82 1 0.518517 0.566667 0.574889
83 1 0.524333 0.566667 0.558444
84 3 0.519446 0.566667 0.563831
85 2 0.546294 0.622222 0.5625
86 1 0.546294 0.622222 0.574889
87 1 0.552111 0.622222 0.558444
88 3 0.547223 0.622222 0.563831
89 2 0.537039 0.566667 0.659722
90 1 0.539972 0.5725 0.663889
91 1 0.539972 0.560833 0.663889
92 3 0.53797 0.566667 0.661045
93 2 0.509261 0.622222 0.659722
94 1 0.512194 0.628056 0.663889
95 1 0.512194 0.616389 0.663889
96 3 0.510193 0.622222 0.661045
97 2 0.546297 0.585183 0.715278
98 1 0.543389 0.579333 0.719444
99 1 0.552139 0.585167 0.719444
100 3 0.546763 0.584252 0.716601
101 2 0.518519 0.640739 0.715278
102 1 0.515611 0.634889 0.719444
103 1 0.524361 0.640722 0.719444
104 3 0.518985 0.639807 0.716601
105 2 0.546297 0.585183 0.673611
106 1 0.546297 0.585183 0.686
107 1 0.543389 0.591 0.669556
108 3 0.545833 0.586112 0.674942
109 2 0.537036 0.603706 0.729167
110 1 0.537036 0.603706 0.741556
111 1 0.539944 0.597889 0.725111
112 3 0.537501 0.602777 0.730498
113 2 0.518519 0.640739 0.673611
114 1 0.518519 0.640739 0.686
115 1 0.515611 0.646556 0.669556
116 3 0.518055 0.641668 0.674942
117 2 0.509258 0.659261 0.729167
118 1 0.509258 0.659261 0.741556
119 1 0.512167 0.653444 0.725111
120 3 0.509723 0.658332 0.730498
121 2 0.518519 0.603706 0.673611
122 1 0.518519 0.603706 0.686
123 1 0.515611 0.597889 0.669556
124 3 0.518055 0.602777 0.674942
125 2 0.546297 0.659261 0.673611
126 1 0.546297 0.659261 0.686
127 1 0.543389 0.653444 0.669556
128 3 0.545833 0.658332 0.674942
129 2 0.537036 0.603706 0.770833
130 1 0.539944 0.609556 0.775
131 1 0.531194 0.603722 0.775
132 3 0.53657 0.604637 0.772156
133 2 0.509258 0.585183 0.770833
134 1 0.512167 0.579333 0.775
135 1 0.503417 0.585167 0.775
136 3 0.508793 0.584252 0.772156
137 2 0.509258 0.659261 0.770833
138 1 0.512167 0.665111 0.775
139 1 0.503417 0.659278 0.775
140 3 0.508793 0.660193 0.772156
141 2 0.537036 0.640739 0.770833
142 1 0.539944 0.634889 0.775
143 1 0.531194 0.640722 0.775
144 3 0.53657 0.639807 0.772156
145 2 0.509258 0.585183 0.729167
146 1 0.509258 0.585183 0.741556
147 1 0.512167 0.591 0.725111
148 3 0.509723 0.586112 0.730498
149 2 0.537036 0.640739 0.729167
150 1 0.537036 0.640739 0.741556
151 1 0.539944 0.646556 0.725111
152 3 0.537501 0.641668 0.730498
153 2 0.518519 0.603706 0.715278
154 1 0.515611 0.609556 0.719444
155 1 0.524361 0.603722 0.719444
156 3 0.518985 0.604637 0.716601
157 2 0.537039 0.566667 0.729167
158 1 0.537039 0.566667 0.741556
159 1 0.531222 0.566667 0.725111
160 3 0.53611 0.566667 0.730498
161 2 0.546297 0.659261 0.715278
162 1 0.543389 0.665111 0.719444
163 1 0.552139 0.659278 0.719444
164 3 0.546763 0.660193 0.716601
165 2 0.509261 0.622222 0.729167
166 1 0.509261 0.622222 0.741556
167 1 0.503444 0.622222 0.725111
168 3 0.508332 0.622222 0.730498
169 2 0.518517 0.566667 0.715278
170 1 0.515583 0.5725 0.719444
171 1 0.515583 0.560833 0.719444
172 3 0.517585 0.566667 0.716601
173 2 0.546294 0.622222 0.715278
174 1 0.543361 0.628056 0.719444
175 1 0.543361 0.616389 0.719444
176 3 0.545363 0.622222 0.716601
177 2 0.518517 0.566667 0.673611
178 1 0.518517 0.566667 0.686
179 1 0.524333 0.566667 0.669556
180 3 0.519446 0.566667 0.674942
181 2 0.546294 0.622222 0.673611
182 1 0.546294 0.622222 0.686
183 1 0.552111 0.622222 0.669556
184 3 0.547223 0.622222 0.674942
185 2 0.537039 0.566667 0.770833
186 1 0.539972 0.5725 0.775
187 1 0.539972 0.560833 0.775
188 3 0.53797 0.566667 0.772156
189 2 0.509261 0.622222 0.770833
190 1 0.512194 0.628056 0.775
191 1 0.512194 0.616389 0.775
192 3 0.510193 0.622222 0.772156
193 2 0.546297 0.585183 0.826389
194 1 0.543389 0.579333 0.830556
195 1 0.552139 0.585167 0.830556
196 3 0.546763 0.584252 0.827712
197 2 0.518519 0.640739 0.826389
198 1 0.515611 0.634889 0.830556
199 1 0.524361 0.640722 0.830556
200 3 0.518985 0.639807 0.827712
201 2 0.546297 0.585183 0.784722
202 1 0.546297 0.585183 0.797111
203 1 0.543389 0.591 0.780667
204 3 0.545833 0.586112 0.786053
205 2 0.537036 0.603706 0.840278
206 1 0.537036 0.603706 0.852667
207 1 0.539944 0.597889 0.836222
208 3 0.537501 0.602777 0.841609
209 2 0.518519 0.640739 0.784722
210 1 0.518519 0.640739 0.797111
211 1 0.515611 0.646556 0.780667
212 3 0.518055 0.641668 0.786053
213 2 0.509258 0.659261 0.840278
214 1 0.509258 0.659261 0.852667
215 1 0.512167 0.653444 0.836222
216 3 0.509723 0.658332 0.841609
217 2 0.518519 0.603706 0.784722
218 1 0.518519 0.603706 0.797111
219 1 0.515611 0.597889 0.780667
220 3 0.518055 0.602777 0.786053
221 2 0.546297 0.659261 0.784722
222 1 0.546297 0.659261 0.797111
223 1 0.543389 0.653444 0.780667
224 3 0.545833 0.658332 0.786053
225 2 0.537036 0.603706 0.881944
226 1 0.539944 0.609556 0.886111
227 1 0.531194 0.603722 0.886111
228 3 0.53657 0.604637 0.883267
229 2 0.509258 0.585183 0.881944
230 1 0.512167 0.579333 0.886111
231 1 0.503417 0.585167 0.886111
232 3 0.508793 0.584252 0.883267
233 2 0.509258 0.659261 0.881944
234 1 0.512167 0.665111 0.886111
235 1 0.503417 0.659278 0.886111
236 3 0.508793 0.660193 0.883267
237 2 0.537036 0.640739 0.881944
238 1 0.539944 0.634889 0.886111
239 1 0.531194 0.640722 0.886111
240 3 0.53657 0.639807 0.883267
241 2 0.509258 0.585183 0.840278
242 1 0.509258 0.585183 0.852667
243 1 0.512167 0.591 0.836222
244 3 0.509723 0.586112 0.841609
245 2 0.537036 0.640739 0.840278
246 1 0.537036 0.640739 0.852667
247 1 0.539944 0.646556 0.836222
248 3 0.537501 0.641668 0.841609
249 2 0.518519 0.603706 0.826389
250 1 0.515611 0.609556 0.830556
251 1 0.524361 0.603722 0.830556
252 3 0.518985 0.604637 0.827712
253 2 0.537039 0.566667 0.840278
254 1 0.537039 0.566667 0.852667
255 1 0.531222 0.566667 0.836222
256 3 0.53611 0.566667 0.841609
257 2 0.546297 0.659261 0.826389
258 1 0.543389 0.665111 0.830556
259 1 0.552139 0.659278 0.830556
260 3 0.546763 0.660193 0.827712
261 2 0.509261 0.622222 0.840278
262 1 0.509261 0.622222 0.852667
263 1 0.503444 0.622222 0.836222
264 3 0.508332 0.622222 0.841609
265 2 0.518517 0.566667 0.826389
266 1 0.515583 0.5725 0.830556
267 1 0.515583 0.560833 0.830556
268 3 0.517585 0.566667 0.827712
269 2 0.546294 0.622222 0.826389
270 1 0.543361 0.628056 0.830556
271 1 0.543361 0.616389 0.830556
272 3 0.545363 0.622222 0.827712
273 2 0.518517 0.566667 0.784722
274 1 0.518517 0.566667 0.797111
275 1 0.524333 0.566667 0.780667
276 3 0.519446 0.566667 0.786053
277 2 0.546294 0.622222 0.784722
278 1 0.546294 0.622222 0.797111
279 1 0.552111 0.622222 0.780667
280 3 0.547223 0.622222 0.786053
281 2 0.537039 0.566667 0.881944
282 1 0.539972 0.5725 0.886111
283 1 0.539972 0.560833 0.886111
284 3 0.53797 0.566667 0.883267
285 2 0.509261 0.622222 0.881944
286 1 0.512194 0.628056 0.886111
287 1 0.512194 0.616389 0.886111
288 3 0.510193 0.622222 0.883267
289 2 0.546297 0.585183 0.9375
290 1 0.543389 0.579333 0.941667
291 1 0.552139 0.585167 0.941667
292 3 0.546763 0.584252 0.938823
293 2 0.518519 0.640739 0.9375
294 1 0.515611 0.634889 0.941667
295 1 0.524361 0.640722 0.941667
296 3 0.518985 0.639807 0.938823
297 2 0.546297 0.585183 0.895833
298 1 0.546297 0.585183 0.908222
299 1 0.543389 0.591 0.891778
300 3 0.545833 0.586112 0.897164
301 2 0.537036 0.603706 0.951389
302 1 0.537036 0.603706 0.963778
303 1 0.539944 0.597889 0.947333
304 3 0.537501 0.602777 0.95272
305 2 0.518519 0.640739 0.895833
306 1 0.518519 0.640739 0.908222
307 1 0.515611 0.646556 0.891778
308 3 0.518055 0.641668 0.897164
309 2 0.509258 0.659261 0.951389
310 1 0.509258 0.659261 0.963778
311 1 0.512167 0.653444 0.947333
312 3 0.509723 0.658332 0.95272
313 2 0.518519 0.603706 0.895833
314 1 0.518519 0.603706 0.908222
315 1 0.515611 0.597889 0.891778
316 3 0.518055 0.602777 0.897164
317 2 0.546297 0.659261 0.895833
318 1 0.546297 0.659261 0.908222
319 1 0.543389 0.653444 0.891778
320 3 0.545833 0.658332 0.897164
321 2 0.537036 0.603706 0.993056
322 1 0.539944 0.609556 0.997222
323 1 0.531194 0.603722 0.997222
324 3 0.53657 0.604637 0.994379
325 2 0.509258 0.585183 0.993056
326 1 0.512167 0.579333 0.997222
327 1 0.503417 0.585167 0.997222
328 3 0.508793 0.584252 0.994379
329 2 0.509258 0.659261 0.993056
330 1 0.512167 0.665111 0.997222
331 1 0.503417 0.659278 0.997222
332 3 0.508793 0.660193 0.994379
333 2 0.537036 0.640739 0.993056
334 1 0.539944 0.634889 0.997222
335 1 0.531194 0.640722 0.997222
336 3 0.53657 0.639807 0.994379
337 2 0.509258 0.585183 0.951389
338 1 0.509258 0.585183 0.963778
339 1 0.512167 0.591 0.947333
340 3 0.509723 0.586112 0.95272
341 2 0.537036 0.640739 0.951389
342 1 0.537036 0.640739 0.963778
343 1 0.539944 0.646556 0.947333
344 3 0.537501 0.641668 0.95272
345 2 0.518519 0.603706 0.9375
346 1 0.515611 0.609556 0.941667
347 1 0.524361 0.603722 0.941667
348 3 0.518985 0.604637 0.938823
349 2 0.537039 0.566667 0.951389
350 1 0.537039 0.566667 0.963778
351 1 0.531222 0.566667 0.947333
352 3 0.53611 0.566667 0.95272
353 2 0.546297 0.659261 0.9375
354 1 0.543389 0.665111 0.941667
355 1 0.552139 0.659278 0.941667
356 3 0.546763 0.660193 0.938823
357 2 0.509261 0.622222 0.951389
358 1 0.509261 0.622222 0.963778
359 1 0.503444 0.622222 0.947333
360 3 0.508332 0.622222 0.95272
361 2 0.518517 0.566667 0.9375
362 1 0.515583 0.5725 0.941667
363 1 0.515583 0.560833 0.941667
364 3 0.517585 0.566667 0.938823
365 2 0.546294 0.622222 0.9375
366 1 0.543361 0.628056 0.941667
367 1 0.543361 0.616389 0.941667
368 3 0.545363 0.622222 0.938823
369 2 0.518517 0.566667 0.895833
370 1 0.518517 0.566667 0.908222
371 1 0.524333 0.566667 0.891778
372 3 0.519446 0.566667 0.897164
373 2 0.546294 0.622222 0.895833
374 1 0.546294 0.622222 0.908222
375 1 0.552111 0.622222 0.891778
376 3 0.547223 0.622222 0.897164
377 2 0.537039 0.566667 0.993056
378 1 0.539972 0.5725 0.997222
379 1 0.539972 0.560833 0.997222
380 3 0.53797 0.566667 0.994379
381 2 0.509261 0.622222 0.993056
382 1 0.512194 0.628056 0.997222
383 1 0.512194 0.616389 0.997222
384 3 0.510193 0.622222 0.994379
385 2 0.546297 0.585183 0.0486111
386 1 0.543389 0.579333 0.0527778
387 1 0.552139 0.585167 0.0527778
388 3 0.546763 0.584252 0.0499341
389 2 0.518519 0.640739 0.0486111
390 1 0.515611 0.634889 0.0527778
391 1 0.524361 0.640722 0.0527778
392 3 0.518985 0.639807 0.0499341
393 2 0.546297 0.585183 0.00694444
394 1 0.546297 0.585183 0.0193333
395 1 0.543389 0.591 0.00288889
396 3 0.545833 0.586112 0.00827532
397 2 0.537036 0.603706 0.0625
398 1 0.537036 0.603706 0.0748889
399 1 0.539944 0.597889 0.0584444
400 3 0.537501 0.602777 0.0638309
401 2 0.518519 0.640739 0.00694444
402 1 0.518519 0.640739 0.0193333
403 1 0.515611 0.646556 0.00288889
404 3 0.518055 0.641668 0.00827532
405 2 0.509258 0.659261 0.0625
406 1 0.509258 0.659261 0.0748889
407 1 0.512167 0.653444 0.0584444
408 3 0.509723 0.658332 0.0638309
409 2 0.518519 0.603706 0.00694444
410 1 0.518519 0.603706 0.0193333
411 1 0.515611 0.597889 0.00288889
412 3 0.518055 0.602777 0.00827532
413 2 0.546297 0.659261 0.00694444
414 1 0.546297 0.659261 0.0193333
415 1 0.543389 0.653444 0.00288889
416 3 0.545833 0.658332 0.00827532
417 2 0.537036 0.603706 0.104167
418 1 0.539944 0.609556 0.108333
419 1 0.531194 0.603722 0.108333
420 3 0.53657 0.604637 0.10549
421 2 0.509258 0.585183 0.104167
422 1 0.512167 0.579333 0.108333
423 1 0.503417 0.585167 0.108333
424 3 0.508793 0.584252 0.10549
425 2 0.509258 0.659261 0.104167
426 1 0.512167 0.665111 0.108333
427 1 0.503417 0.659278 0.108333
428 3 0.508793 0.660193 0.10549
429 2 0.537036 0.640739 0.104167
430 1 0.539944 0.634889 0.108333
431 1 0.531194 0.640722 0.108333
432 3 0.53657 0.639807 0.10549
433 2 0.509258 0.585183 0.0625
434 1 0.509258 0.585183 0.0748889
435 1 0.512167 0.591 0.0584444
436 3 0.509723 0.586112 0.0638309
437 2 0.537036 0.640739 0.0625
438 1 0.537036 0.640739 0.0748889
439 1 0.539944 0.646556 0.0584444
440 3 0.537501 0.641668 0.0638309
441 2 0.518519 0.603706 0.0486111
442 1 0.515611 0.609556 0.0527778
443 1 0.524361 0.603722 0.0527778
444 3 0.518985 0.604637 0.0499341
445 2 0.537039 0.566667 0.0625
446 1 0.537039 0.566667 0.0748889
447 1 0.531222 0.566667 0.0584444
448 3 0.53611 0.566667 0.0638309
449 2 0.546297 0.659261 0.0486111
450 1 0.543389 0.665111 0.0527778
451 1 0.552139 0.659278 0.0527778
452 3 0.546763 0.660193 0.0499341
453 2 0.509261 0.622222 0.0625
454 1 0.509261 0.622222 0.0748889
455 1 0.503444 0.622222 0.0584444
456 3 0.508332 0.622222 0.0638309
457 2 0.518517 0.566667 0.0486111
458 1 0.515583 0.5725 0.0527778
459 1 0.515583 0.560833 0.0527778
460 3 0.517585 0.566667 0.0499341
461 2 0.546294 0.622222 0.0486111
462 1 0.543361 0.628056 0.0527778
463 1 0.543361 0.616389 0.0527778
464 3 0.545363 0.622222 0.0499341
465 2 0.518517 0.566667 0.00694444
466 1 0.518517 0.566667 0.0193333
467 1 0.524333 0.566667 0.00288889
468 3 0.519446 0.566667 0.00827532
469 2 0.546294 0.622222 0.00694444
470 1 0.546294 0.622222 0.0193333
471 1 0.552111 0.622222 0.00288889
472 3 0.547223 0.622222 0.00827532
473 2 0.537039 0.566667 0.104167
474 1 0.539972 0.5725 0.108333
475 1 0.539972 0.560833 0.108333
476 3 0.53797 0.566667 0.10549
477 2 0.509261 0.622222 0.104167
478 1 0.512194 0.628056 0.108333
479 1 0.512194 0.616389 0.108333
480 3 0.510193 0.622222 0.10549
481 2 0.546297 0.585183 0.159722
482 1 0.543389 0.579333 0.163889
483 1 0.552139 0.585167 0.163889
484 3 0.546763 0.584252 0.161045
485 2 0.518519 0.640739 0.159722
486 1 0.515611 0.634889 0.163889
487 1 0.524361 0.640722 0.163889
488 3 0.518985 0.639807 0.161045
489 2 0.546297 0.585183 0.118056
490 1 0.546297 0.585183 0.130444
491 1 0.543389 0.591 0.114
492 3 0.545833 0.586112 0.119386
493 2 0.537036 0.603706 0.173611
494 1 0.537036 0.603706 0.186
495 1 0.539944 0.597889 0.169556
496 3 0.537501 0.602777 0.174942
497 2 0.518519 0.640739 0.118056
498 1 0.518519 0.640739 0.130444
499 1 0.515611 0.646556 0.114
500 3 0.518055 0.641668 0.119386
501 2 0.509258 0.659261 0.173611
502 1 0.509258 0.659261 0.186
503 1 0.512167 0.653444 0.169556
504 3 0.509723 0.658332 0.174942
505 2 0.518519 0.603706 0.118056
506 1 0.518519 0.603706 0.130444
507 1 0.515611 0.597889 0.114
508 3 0.518055 0.602777 0.119386
509 2 0.546297 0.659261 0.118056
510 1 0.546297 0.659261 0.130444
511 1 0.543389 0.653444 0.114
512 3 0.545833 0.658332 0.119386
513 2 0.537036 0.603706 0.215278
514 1 0.539944 0.609556 0.219444
515 1 0.531194 0.603722 0.219444
516 3 0.53657 0.604637 0.216601
517 2 0.509258 0.585183 0.215278
518 1 0.512167 0.579333 0.219444
519 1 0.503417 0.585167 0.219444
520 3 0.508793 0.584252 0.216601
521 2 0.509258 0.659261 0.215278
522 1 0.512167 0.665111 0.219444
523 1 0.503417 0.659278 0.219444
524 3 0.508793 0.660193 0.216601
525 2 0.537036 0.640739 0.215278
526 1 0.539944 0.634889 0.219444
527 1 0.531194 0.640722 0.219444
528 3 0.53657 0.639807 0.216601
529 2 0.509258 0.585183 0.173611
530 1 0.509258 0.585183 0.186
531 1 0.512167 0.591 0.169556
532 3 0.509723 0.586112 0.174942
533 2 0.537036 0.640739 0.173611
534 1 0.537036 0.640739 0.186
535 1 0.539944 0.646556 0.169556
536 3 0.537501 0.641668 0.174942
537 2 0.518519 0.603706 0.159722
538 1 0.515611 0.609556 0.163889
539 1 0.524361 0.603722 0.163889
540 3 0.518985 0.604637 0.161045
541 2 0.537039 0.566667 0.173611
542 1 0.537039 0.566667 0.186
543 1 0.531222 0.566667 0.169556
544 3 0.53611 0.566667 0.174942
545 2 0.546297 0.659261 0.159722
546 1 0.543389 0.665111 0.163889
547 1 0.552139 0.659278 0.163889
548 3 0.546763 0.660193 0.161045
549 2 0.509261 0.622222 0.173611
550 1 0.509261 0.622222 0.186
551 1 0.503444 0.622222 0.169556
552 3 0.508332 0.622222 0.174942
553 2 0.518517 0.566667 0.159722
554 1 0.515583 0.5725 0.163889
555 1 0.515583 0.560833 0.163889
556 3 0.517585 0.566667 0.161045
557 2 0.546294 0.622222 0.159722
558 1 0.543361 0.628056 0.163889
559 1 0.543361 0.616389 0.163889
560 3 0.545363 0.622222 0.161045
561 2 0.518517 0.566667 0.118056
562 1 0.518517 0.566667 0.130444
563 1 0.524333 0.566667 0.114
564 3 0.519446 0.566667 0.119386
565 2 0.546294 0.622222 0.118056
566 1 0.546294 0.622222 0.130444
567 1 0.552111 0.622222 0.114
568 3 0.547223 0.622222 0.119386
569 2 0.537039 0.566667 0.215278
570 1 0.539972 0.5725 0.219444
571 1 0.539972 0.560833 0.219444
572 3 0.53797 0.566667 0.216601
573 2 0.509261 0.622222 0.215278
574 1 0.512194 0.628056 0.219444
575 1 0.512194 0.616389 0.219444
576 3 0.510193 0.622222 0.216601
577 2 0.546297 0.585183 0.270833
578 1 0.543389 0.579333 0.275
579 1 0.552139 0.585167 0.275
580 3 0.546763 0.584252 0.272156
581 2 0.518519 0.640739 0.270833
582 1 0.515611 0.634889 0.275
583 1 0.524361 0.640722 0.275
584 3 0.518985 0.639807 0.272156
585 2 0.546297 0.585183 0.229167
586 1 0.546297 0.585183 0.241556
587 1 0.543389 0.591 0.225111
588 3 0.545833 0.586112 0.230498
589 2 0.537036 0.603706 0.284722
590 1 0.537036 0.603706 0.297111
591 1 0.539944 0.597889 0.280667
592 3 0.537501 0.602777 0.286053
593 2 0.518519 0.640739 0.229167
594 1 0.518519 0.640739 0.241556
595 1 0.515611 0.646556 0.225111
596 3 0.518055 0.641668 0.230498
597 2 0.509258 0.659261 0.284722
598 1 0.509258 0.659261 0.297111
599 1 0.512167 0.653444 0.280667
600 3 0.509723 0.658332 0.286053
601 2 0.518519 0.603706 0.229167
602 1 0.518519 0.603706 0.241556
603 1 0.515611 0.597889 0.225111
604 3 0.518055 0.602777 0.230498
605 2 0.546297 0.659261 0.229167
606 1 0.546297 0.659261 0.241556
607 1 0.543389 0.653444 0.225111
608 3 0.545833 0.658332 0.230498
609 2 0.537036 0.603706 0.326389
610 1 0.539944 0.609556 0.330556
611 1 0.531194 0.603722 0.330556
612 3 0.53657 0.604637 0.327712
613 2 0.509258 0.585183 0.326389
614 1 0.512167 0.579333 0.330556
615 1 0.503417 0.585167 0.330556
616 3 0.508793 0.584252 0.327712
617 2 0.509258 0.659261 0.326389
618 1 0.512167 0.665111 0.330556
619 1 0.503417 0.659278 0.330556
620 3 0.508793 0.660193 0.327712
621 2 0.537036 0.640739 0.326389
622 1 0.539944 0.634889 0.330556
623 1 0.531194 0.640722 0.330556
624 3 0.53657 0.639807 0.327712
625 2 0.509258 0.585183 0.284722
626 1 0.509258 0.585183 0.297111
627 1 0.512167 0.591 0.280667
628 3 0.509723 0.586112 0.286053
629 2 0.537036 0.640739 0.284722
630 1 0.537036 0.640739 0.297111
631 1 0.539944 0.646556 0.280667
632 3 0.537501 0.641668 0.286053
633 2 0.518519 0.603706 0.270833
634 1 0.515611 0.609556 0.275
635 1 0.524361 0.603722 0.275
636 3 0.518985 0.604637 0.272156
637 2 0.537039 0.566667 0.284722
638 1 0.537039 0.566667 0.297111
639 1 0.531222 0.566667 0.280667
640 3 0.53611 0.566667 0.286053
641 2 0.546297 0.659261 0.270833
642 1 0.543389 0.665111 0.275
643 1 0.552139 0.659278 0.275
644 3 0.546763 0.660193 0.272156
645 2 0.509261 0.622222 0.284722
646 1 0.509261 0.622222 0.297111
647 1 0.503444 0.622222 0.280667
648 3 0.508332 0.622222 0.286053
649 2 0.518517 0.566667 0.270833
650 1 0.515583 0.5725 0.275
651 1 0.515583 0.560833 0.275
652 3 0.517585 0.566667 0.272156
653 2 0.546294 0.622222 0.270833
654 1 0.543361 0.628056 0.275
655 1 0.543361 0.616389 0.275
656 3 0.545363 0.622222 0.272156
657 2 0.518517 0.566667 0.229167
658 1 0.518517 0.566667 0.241556
659 1 0.524333 0.566667 0.225111
660 3 0.519446 0.566667 0.230498
661 2 0.546294 0.622222 0.229167
662 1 0.546294 0.622222 0.241556
663 1 0.552111 0.622222 0.225111
664 3 0.547223 0.622222 0.230498
665 2 0.537039 0.566667 0.326389
666 1 0.539972 0.5725 0.330556
667 1 0.539972 0.560833 0.330556
668 3 0.53797 0.566667 0.327712
669 2 0.509261 0.622222 0.326389
670 1 0.512194 0.628056 0.330556
671 1 0.512194 0.616389 0.330556
672 3 0.510193 0.622222 0.327712
673 2 0.546297 0.585183 0.381944
674 1 0.543389 0.579333 0.386111
675 1 0.552139 0.585167 0.386111
676 3 0.546763 0.584252 0.383267
677 2 0.518519 0.640739 0.381944
678 1 0.515611 0.634889 0.386111
679 1 0.524361 0.640722 0.386111
680 3 0.518985 0.639807 0.383267
681 2 0.546297 0.585183 0.340278
682 1 0.546297 0.585183 0.352667
683 1 0.543389 0.591 0.336222
684 3 0.545833 0.586112 0.341609
685 2 0.537036 0.603706 0.395833
686 1 0.537036 0.603706 0.408222
687 1 0.539944 0.597889 0.391778
688 3 0.537501 0.602777 0.397164
689 2 0.518519 0.640739 0.340278
690 1 0.518519 0.640739 0.352667
691 1 0.515611 0.646556 0.336222
692 3 0.518055 0.641668 0.341609
693 2 0.509258 0.659261 0.395833
694 1 0.509258 0.659261 0.408222
695 1 0.512167 0.653444 0.391778
696 3 0.509723 0.658332 0.397164
697 2 0.518519 0.603706 0.340278
698 1 0.518519 0.603706 0.352667
699 1 0.515611 0.597889 0.336222
700 3 0.518055 0.602777 0.341609
701 2 0.546297 0.659261 0.340278
702 1 0.546297 0.659261 0.352667
703 1 0.543389 0.653444 0.336222
704 3 0.545833 0.658332 0.341609
705 2 0.537036 0.603706 0.4375
706 1 0.539944 0.609556 0.441667
707 1 0.531194 0.603722 0.441667
708 3 0.53657 0.604637 0.438823
709 2 0.509258 0.585183 0.4375
710 1 0.512167 0.579333 0.441667
711 1 0.503417 0.585167 0.441667
712 3 0.508793 0.584252 0.438823
713 2 0.509258 0.659261 0.4375
714 1 0.512167 0.665111 0.441667
715 1 0.503417 0.659278 0.441667
716 3 0.508793 0.660193 0.438823
717 2 0.537036 0.640739 0.4375
718 1 0.539944 0.634889 0.441667
719 1 0.531194 0.640722 0.441667
720 3 0.53657 0.639807 0.438823
721 2 0.509258 0.585183 0.395833
722 1 0.509258 0.585183 0.408222
723 1 0.512167 0.591 0.391778
724 3 0.509723 0.586112 0.397164
725 2 0.537036 0.640739 0.395833
726 1 0.537036 0.640739 0.408222
727 1 0.539944 0.646556 0.391778
728 3 0.537501 0.641668 0.397164
729 2 0.518519 0.603706 0.381944
730 1 0.515611 0.609556 0.386111
731 1 0.524361 0.603722 0.386111
732 3 0.518985 0.604637 0.383267
733 2 0.537039 0.566667 0.395833
734 1 0.537039 0.566667 0.408222
735 1 0.531222 0.566667 0.391778
736 3 0.53611 0.566667 0.397164
737 2 0.546297 0.659261 0.381944
738 1 0.543389 0.665111 0.386111
739 1 0.552139 0.659278 0.386111
740 3 0.546763 0.660193 0.383267
741 2 0.509261 0.622222 0.395833
742 1 0.509261 0.622222 0.408222
743 1 0.503444 0.622222 0.391778
744 3 0.508332 0.622222 0.397164
745 2 0.518517 0.566667 0.381944
746 1 0.515583 0.5725 0.386111
747 1 0.515583 0.560833 0.386111
748 3 0.517585 0.566667 0.383267
749 2 0.546294 0.622222 0.381944
750 1 0.543361 0.628056 0.386111
751 1 0.543361 0.616389 0.386111
752 3 0.545363 0.622222 0.383267
753 2 0.518517 0.566667 0.340278
754 1 0.518517 0.566667 0.352667
755 1 0.524333 0.566667 0.336222
756 3 0.519446 0.566667 0.341609
757 2 0.546294 0.622222 0.340278
758 1 0.546294 0.622222 0.352667
759 1 0.552111 0.622222 0.336222
760 3 0.547223 0.622222 0.341609
761 2 0.537039 0.566667 0.4375
762 1 0.539972 0.5725 0.441667
763 1 0.539972 0.560833 0.441667
764 3 0.53797 0.566667 0.438823
765 2 0.509261 0.622222 0.4375
766 1 0.512194 0.628056 0.441667
767 1 0.512194 0.616389 0.441667
768 3 0.510193 0.622222 0.438823
769 2 0.546297 0.585183 0.493056
770 1 0.543389 0.579333 0.497222
771 1 0.552139 0.585167 0.497222
772 3 0.546763 0.584252 0.494379
773 2 0.518519 0.640739 0.493056
774 1 0.515611 0.634889 0.497222
775 1 0.524361 0.640722 0.497222
776 3 0.518985 0.639807 0.494379
777 2 0.546297 0.585183 0.451389
778 1 0.546297 0.585183 0.463778
779 1 0.543389 0.591 0.447333
780 3 0.545833 0.586112 0.45272
781 2 0.537036 0.603706 0.506944
782 1 0.537036 0.603706 0.519333
783 1 0.539944 0.597889 0.502889
784 3 0.537501 0.602777 0.508275
785 2 0.518519 0.640739 0.451389
786 1 0.518519 0.640739 0.463778
787 1 0.515611 0.646556 0.447333
788 3 0.518055 0.641668 0.45272
789 2 0.509258 0.659261 0.506944
790 1 0.509258 0.659261 0.519333
791 1 0.512167 0.653444 0.502889
792 3 0.509723 0.658332 0.508275
793 2 0.518519 0.603706 0.451389
794 1 0.518519 0.603706 0.463778
795 1 0.515611 0.597889 0.447333
796 3 0.518055 0.602777 0.45272
797 2 0.546297 0.659261 0.451389
798 1 0.546297 0.659261 0.463778
799 1 0.543389 0.653444 0.447333
800 3 0.545833 0.658332 0.45272
801 2 0.537036 0.603706 0.548611
802 1 0.539944 0.609556 0.552778
803 1 0.531194 0.603722 0.552778
804 3 0.53657 0.604637 0.549934
805 2 0.509258 0.585183 0.548611
806 1 0.512167 0.579333 0.552778
807 1 0.503417 0.585167 0.552778
808 3 0.508793 0.584252 0.549934
809 2 0.509258 0.659261 0.548611
810 1 0.512167 0.665111 0.552778
811 1 0.503417 0.659278 0.552778
812 3 0.508793 0.660193 0.549934
813 2 0.537036 0.640739 0.548611
814 1 0.539944 0.634889 0.552778
815 1 0.531194 0.640722 0.552778
816 3 0.53657 0.639807 0.549934
817 2 0.509258 0.585183 0.506944
818 1 0.509258 0.585183 0.519333
819 1 0.512167 0.591 0.502889
820 3 0.509723 0.586112 0.508275
821 2 0.537036 0.640739 0.506944
822 1 0.537036 0.640739 0.519333
823 1 0.539944 0.646556 0.502889
824 3 0.537501 0.641668 0.508275
825 2 0.518519 0.603706 0.493056
826 1 0.515611 0.609556 0.497222
827 1 0.524361 0.603722 0.497222
828 3 0.518985 0.604637 0.494379
829 2 0.537039 0.566667 0.506944
830 1 0.537039 0.566667 0.519333
831 1 0.531222 0.566667 0.502889
832 3 0.53611 0.566667 0.508275
833 2 0.546297 0.659261 0.493056
834 1 0.543389 0.665111 0.497222
835 1 0.552139 0.659278 0.497222
836 3 0.546763 0.660193 0.494379
837 2 0.509261 0.622222 0.506944
838 1 0.509261 0.622222 0.519333
839 1 0.503444 0.622222 0.502889
840 3 0.508332 0.622222 0.508275
841 2 0.518517 0.566667 0.493056
842 1 0.515583 0.5725 0.497222
843 1 0.515583 0.560833 0.497222
844 3 0.517585 0.566667 0.494379
845 2 0.546294 0.622222 0.493056
846 1 0.543361 0.628056 0.497222
847 1 0.543361 0.616389 0.497222
848 3 0.545363 0.622222 0.494379
849 2 0.518517 0.566667 0.451389
850 1 0.518517 0.566667 0.463778
851 1 0.524333 0.566667 0.447333
852 3 0.519446 0.566667 0.45272
853 2 0.546294 0.622222 0.451389
854 1 0.546294 0.622222 0.463778
855 1 0.552111 0.622222 0.447333
856 3 0.547223 0.622222 0.45272
857 2 0.537039 0.566667 0.548611
858 1 0.539972 0.5725 0.552778
859 1 0.539972 0.560833 0.552778
860 3 0.53797 0.566667 0.549934
861 2 0.509261 0.622222 0.548611
862 1 0.512194 0.628056 0.552778
863 1 0.512194 0.616389 0.552778
864 3 0.510193 0.622222 0.549934
865 2 0.546297 0.696294 0.604167
866 1 0.543389 0.690444 0.608333
867 1 0.552139 0.696278 0.608333
868 3 0.546763 0.695363 0.60549
869 2 0.518519 0.75185 0.604167
870 1 0.515611 0.746 0.608333
871 1 0.524361 0.751833 0.608333
872 3 0.518985 0.750919 0.60549
873 2 0.546297 0.696294 0.5625
874 1 0.546297 0.696294 0.574889
875 1 0.543389 0.702111 0.558444
876 3 0.545833 0.697223 0.563831
877 2 0.537036 0.714817 0.618056
878 1 0.537036 0.714817 0.630444
879 1 0.539944 0.709 0.614
880 3 0.537501 0.713888 0.619386
881 2 0.518519 0.75185 0.5625
882 1 0.518519 0.75185 0.574889
883 1 0.515611 0.757667 0.558444
884 3 0.518055 0.752779 0.563831
885 2 0.509258 0.770372 0.618056
886 1 0.509258 0.770372 0.630444