# LAMMPS data file written by OVITO Basic 3.11.2

7776 atoms
3 atom types
 
      -70.380000000000       70.380000000000  xlo xhi
      0.000000000000      121.901400000000  ylo yhi
      0.000000000000      66.240  	    zlo zhi

Masses
 
            1   1.00800000              # H
            2   15.99900000             # O
	    3   1e-100             	# M


Atoms  # charge

1	2	0	6.516797	-50.56673241	-26.22
2	1	0.5897	6.10742	-51.2798556	-25.944
3	1	0.5897	7.33907	-50.5687641	-25.944
4	3	-1.1794	6.58235206	-50.68027679	-26.13236448
5	2	0	2.606797	-43.79443241	-26.22
6	1	0.5897	2.19742	-44.5075556	-25.944
7	1	0.5897	3.42907	-43.7964641	-25.944
8	3	-1.1794	2.67235206	-43.90797679	-26.13236448
9	2	0	6.516797	-50.56673241	-28.98
10	1	0.5897	6.516797	-50.56673241	-28.15936
11	1	0.5897	6.10742	-49.8576726	-29.24864
12	3	-1.1794	6.4514218	-50.45349955	-28.89184266
13	2	0	5.213203	-48.30884759	-25.3
14	1	0.5897	5.213203	-48.30884759	-24.47936
15	1	0.5897	5.62258	-49.0179074	-25.56864
16	3	-1.1794	5.2785782	-48.42209399	-25.21184192
17	2	0	2.606797	-43.79443241	-28.98
18	1	0.5897	2.606797	-43.79443241	-28.15936
19	1	0.5897	2.19742	-43.0853726	-29.24864
20	3	-1.1794	2.5414218	-43.68119955	-28.89184266
21	2	0	1.303203	-41.53654759	-25.3
22	1	0.5897	1.303203	-41.53654759	-24.47936
23	1	0.5897	1.71258	-42.2456074	-25.56864
24	3	-1.1794	1.3685782	-41.64979399	-25.21184192
25	2	0	2.606797	-48.30884759	-28.98
26	1	0.5897	2.606797	-48.30884759	-28.15936
27	1	0.5897	2.19742	-49.0179074	-29.24864
28	3	-1.1794	2.5414218	-48.42209399	-28.89184266
29	2	0	6.516797	-41.53654759	-28.98
30	1	0.5897	6.516797	-41.53654759	-28.15936
31	1	0.5897	6.10742	-42.2456074	-29.24864
32	3	-1.1794	6.4514218	-41.64979399	-28.89184266
33	2	0	5.213203	-48.30884759	-22.54
34	1	0.5897	5.62258	-47.5957244	-22.264
35	1	0.5897	4.39093	-48.3068159	-22.264
36	3	-1.1794	5.14764794	-48.19530321	-22.45236448
37	2	0	1.303203	-50.56673241	-22.54
38	1	0.5897	1.71258	-51.2798556	-22.264
39	1	0.5897	0.48093	-50.5687641	-22.264
40	3	-1.1794	1.23764794	-50.68027679	-22.45236448
41	2	0	1.303203	-41.53654759	-22.54
42	1	0.5897	1.71258	-40.8234244	-22.264
43	1	0.5897	0.48093	-41.5345159	-22.264
44	3	-1.1794	1.23764794	-41.42300321	-22.45236448
45	2	0	5.213203	-43.79443241	-22.54
46	1	0.5897	5.62258	-44.5075556	-22.264
47	1	0.5897	4.39093	-43.7964641	-22.264
48	3	-1.1794	5.14764794	-43.90797679	-22.45236448
49	2	0	1.303203	-50.56673241	-25.3
50	1	0.5897	1.303203	-50.56673241	-24.47936
51	1	0.5897	1.71258	-49.8576726	-25.56864
52	3	-1.1794	1.3685782	-50.45349955	-25.21184192
53	2	0	5.213203	-43.79443241	-25.3
54	1	0.5897	5.213203	-43.79443241	-24.47936
55	1	0.5897	5.62258	-43.0853726	-25.56864
56	3	-1.1794	5.2785782	-43.68119955	-25.21184192
57	2	0	2.606797	-48.30884759	-26.22
58	1	0.5897	2.19742	-47.5957244	-25.944
59	1	0.5897	3.42907	-48.3068159	-25.944
60	3	-1.1794	2.67235206	-48.19530321	-26.13236448
61	2	0	5.213594	-52.82394	-25.3
62	1	0.5897	5.213594	-52.82394	-24.47936
63	1	0.5897	4.39484	-52.82394	-25.56864
64	3	-1.1794	5.08283578	-52.82394	-25.21184192
65	2	0	6.516797	-41.53654759	-26.22
66	1	0.5897	6.10742	-40.8234244	-25.944
67	1	0.5897	7.33907	-41.5345159	-25.944
68	3	-1.1794	6.58235206	-41.42300321	-26.13236448
69	2	0	1.303594	-46.05164	-25.3
70	1	0.5897	1.303594	-46.05164	-24.47936
71	1	0.5897	0.48484	-46.05164	-25.56864
72	3	-1.1794	1.17283578	-46.05164	-25.21184192
73	2	0	2.606406	-52.82394	-26.22
74	1	0.5897	2.19351	-52.1128485	-25.944
75	1	0.5897	2.19351	-53.5350315	-25.944
76	3	-1.1794	2.4753037	-52.82394	-26.13236448
77	2	0	6.516406	-46.05164	-26.22
78	1	0.5897	6.10351	-45.3405485	-25.944
79	1	0.5897	6.10351	-46.7627315	-25.944
80	3	-1.1794	6.3853037	-46.05164	-26.13236448
81	2	0	2.606406	-52.82394	-28.98
82	1	0.5897	2.606406	-52.82394	-28.15936
83	1	0.5897	3.42516	-52.82394	-29.24864
84	3	-1.1794	2.73716422	-52.82394	-28.89184266
85	2	0	6.516406	-46.05164	-28.98
86	1	0.5897	6.516406	-46.05164	-28.15936
87	1	0.5897	7.33516	-46.05164	-29.24864
88	3	-1.1794	6.64716422	-46.05164	-28.89184266
89	2	0	5.213594	-52.82394	-22.54
90	1	0.5897	5.62649	-52.1128485	-22.264
91	1	0.5897	5.62649	-53.5350315	-22.264
92	3	-1.1794	5.3446963	-52.82394	-22.45236448
93	2	0	1.303594	-46.05164	-22.54
94	1	0.5897	1.71649	-45.3405485	-22.264
95	1	0.5897	1.71649	-46.7627315	-22.264
96	3	-1.1794	1.4346963	-46.05164	-22.45236448
97	2	0	6.516797	-50.56673241	-18.86
98	1	0.5897	6.10742	-51.2798556	-18.584
99	1	0.5897	7.33907	-50.5687641	-18.584
100	3	-1.1794	6.58235206	-50.68027679	-18.77236448
101	2	0	2.606797	-43.79443241	-18.86
102	1	0.5897	2.19742	-44.5075556	-18.584
103	1	0.5897	3.42907	-43.7964641	-18.584
104	3	-1.1794	2.67235206	-43.90797679	-18.77236448
105	2	0	6.516797	-50.56673241	-21.62
106	1	0.5897	6.516797	-50.56673241	-20.79936
107	1	0.5897	6.10742	-49.8576726	-21.88864
108	3	-1.1794	6.4514218	-50.45349955	-21.53184266
109	2	0	5.213203	-48.30884759	-17.94
110	1	0.5897	5.213203	-48.30884759	-17.11936
111	1	0.5897	5.62258	-49.0179074	-18.20864
112	3	-1.1794	5.2785782	-48.42209399	-17.85184192
113	2	0	2.606797	-43.79443241	-21.62
114	1	0.5897	2.606797	-43.79443241	-20.79936
115	1	0.5897	2.19742	-43.0853726	-21.88864
116	3	-1.1794	2.5414218	-43.68119955	-21.53184266
117	2	0	1.303203	-41.53654759	-17.94
118	1	0.5897	1.303203	-41.53654759	-17.11936
119	1	0.5897	1.71258	-42.2456074	-18.20864
120	3	-1.1794	1.3685782	-41.64979399	-17.85184192
121	2	0	2.606797	-48.30884759	-21.62
122	1	0.5897	2.606797	-48.30884759	-20.79936
123	1	0.5897	2.19742	-49.0179074	-21.88864
124	3	-1.1794	2.5414218	-48.42209399	-21.53184266
125	2	0	6.516797	-41.53654759	-21.62
126	1	0.5897	6.516797	-41.53654759	-20.79936
127	1	0.5897	6.10742	-42.2456074	-21.88864
128	3	-1.1794	6.4514218	-41.64979399	-21.53184266
129	2	0	5.213203	-48.30884759	-15.18
130	1	0.5897	5.62258	-47.5957244	-14.904
131	1	0.5897	4.39093	-48.3068159	-14.904
132	3	-1.1794	5.14764794	-48.19530321	-15.09236448
133	2	0	1.303203	-50.56673241	-15.18
134	1	0.5897	1.71258	-51.2798556	-14.904
135	1	0.5897	0.48093	-50.5687641	-14.904
136	3	-1.1794	1.23764794	-50.68027679	-15.09236448
137	2	0	1.303203	-41.53654759	-15.18
138	1	0.5897	1.71258	-40.8234244	-14.904
139	1	0.5897	0.48093	-41.5345159	-14.904
140	3	-1.1794	1.23764794	-41.42300321	-15.09236448
141	2	0	5.213203	-43.79443241	-15.18
142	1	0.5897	5.62258	-44.5075556	-14.904
143	1	0.5897	4.39093	-43.7964641	-14.904
144	3	-1.1794	5.14764794	-43.90797679	-15.09236448
145	2	0	1.303203	-50.56673241	-17.94
146	1	0.5897	1.303203	-50.56673241	-17.11936
147	1	0.5897	1.71258	-49.8576726	-18.20864
148	3	-1.1794	1.3685782	-50.45349955	-17.85184192
149	2	0	5.213203	-43.79443241	-17.94
150	1	0.5897	5.213203	-43.79443241	-17.11936
151	1	0.5897	5.62258	-43.0853726	-18.20864
152	3	-1.1794	5.2785782	-43.68119955	-17.85184192
153	2	0	2.606797	-48.30884759	-18.86
154	1	0.5897	2.19742	-47.5957244	-18.584
155	1	0.5897	3.42907	-48.3068159	-18.584
156	3	-1.1794	2.67235206	-48.19530321	-18.77236448
157	2	0	5.213594	-52.82394	-17.94
158	1	0.5897	5.213594	-52.82394	-17.11936
159	1	0.5897	4.39484	-52.82394	-18.20864
160	3	-1.1794	5.08283578	-52.82394	-17.85184192
161	2	0	6.516797	-41.53654759	-18.86
162	1	0.5897	6.10742	-40.8234244	-18.584
163	1	0.5897	7.33907	-41.5345159	-18.584
164	3	-1.1794	6.58235206	-41.42300321	-18.77236448
165	2	0	1.303594	-46.05164	-17.94
166	1	0.5897	1.303594	-46.05164	-17.11936
167	1	0.5897	0.48484	-46.05164	-18.20864
168	3	-1.1794	1.17283578	-46.05164	-17.85184192
169	2	0	2.606406	-52.82394	-18.86
170	1	0.5897	2.19351	-52.1128485	-18.584
171	1	0.5897	2.19351	-53.5350315	-18.584
172	3	-1.1794	2.4753037	-52.82394	-18.77236448
173	2	0	6.516406	-46.05164	-18.86
174	1	0.5897	6.10351	-45.3405485	-18.584
175	1	0.5897	6.10351	-46.7627315	-18.584
176	3	-1.1794	6.3853037	-46.05164	-18.77236448
177	2	0	2.606406	-52.82394	-21.62
178	1	0.5897	2.606406	-52.82394	-20.79936
179	1	0.5897	3.42516	-52.82394	-21.88864
180	3	-1.1794	2.73716422	-52.82394	-21.53184266
181	2	0	6.516406	-46.05164	-21.62
182	1	0.5897	6.516406	-46.05164	-20.79936
183	1	0.5897	7.33516	-46.05164	-21.88864
184	3	-1.1794	6.64716422	-46.05164	-21.53184266
185	2	0	5.213594	-52.82394	-15.18
186	1	0.5897	5.62649	-52.1128485	-14.904
187	1	0.5897	5.62649	-53.5350315	-14.904
188	3	-1.1794	5.3446963	-52.82394	-15.09236448
189	2	0	1.303594	-46.05164	-15.18
190	1	0.5897	1.71649	-45.3405485	-14.904
191	1	0.5897	1.71649	-46.7627315	-14.904
192	3	-1.1794	1.4346963	-46.05164	-15.09236448
193	2	0	6.516797	-50.56673241	-11.5
194	1	0.5897	6.10742	-51.2798556	-11.224
195	1	0.5897	7.33907	-50.5687641	-11.224
196	3	-1.1794	6.58235206	-50.68027679	-11.41236448
197	2	0	2.606797	-43.79443241	-11.5
198	1	0.5897	2.19742	-44.5075556	-11.224
199	1	0.5897	3.42907	-43.7964641	-11.224
200	3	-1.1794	2.67235206	-43.90797679	-11.41236448
201	2	0	6.516797	-50.56673241	-14.26
202	1	0.5897	6.516797	-50.56673241	-13.43936
203	1	0.5897	6.10742	-49.8576726	-14.52864
204	3	-1.1794	6.4514218	-50.45349955	-14.17184266
205	2	0	5.213203	-48.30884759	-10.58
206	1	0.5897	5.213203	-48.30884759	-9.75936
207	1	0.5897	5.62258	-49.0179074	-10.84864
208	3	-1.1794	5.2785782	-48.42209399	-10.49184192
209	2	0	2.606797	-43.79443241	-14.26
210	1	0.5897	2.606797	-43.79443241	-13.43936
211	1	0.5897	2.19742	-43.0853726	-14.52864
212	3	-1.1794	2.5414218	-43.68119955	-14.17184266
213	2	0	1.303203	-41.53654759	-10.58
214	1	0.5897	1.303203	-41.53654759	-9.75936
215	1	0.5897	1.71258	-42.2456074	-10.84864
216	3	-1.1794	1.3685782	-41.64979399	-10.49184192
217	2	0	2.606797	-48.30884759	-14.26
218	1	0.5897	2.606797	-48.30884759	-13.43936
219	1	0.5897	2.19742	-49.0179074	-14.52864
220	3	-1.1794	2.5414218	-48.42209399	-14.17184266
221	2	0	6.516797	-41.53654759	-14.26
222	1	0.5897	6.516797	-41.53654759	-13.43936
223	1	0.5897	6.10742	-42.2456074	-14.52864
224	3	-1.1794	6.4514218	-41.64979399	-14.17184266
225	2	0	5.213203	-48.30884759	-7.82
226	1	0.5897	5.62258	-47.5957244	-7.544
227	1	0.5897	4.39093	-48.3068159	-7.544
228	3	-1.1794	5.14764794	-48.19530321	-7.73236448
229	2	0	1.303203	-50.56673241	-7.82
230	1	0.5897	1.71258	-51.2798556	-7.544
231	1	0.5897	0.48093	-50.5687641	-7.544
232	3	-1.1794	1.23764794	-50.68027679	-7.73236448
233	2	0	1.303203	-41.53654759	-7.82
234	1	0.5897	1.71258	-40.8234244	-7.544
235	1	0.5897	0.48093	-41.5345159	-7.544
236	3	-1.1794	1.23764794	-41.42300321	-7.73236448
237	2	0	5.213203	-43.79443241	-7.82
238	1	0.5897	5.62258	-44.5075556	-7.544
239	1	0.5897	4.39093	-43.7964641	-7.544
240	3	-1.1794	5.14764794	-43.90797679	-7.73236448
241	2	0	1.303203	-50.56673241	-10.58
242	1	0.5897	1.303203	-50.56673241	-9.75936
243	1	0.5897	1.71258	-49.8576726	-10.84864
244	3	-1.1794	1.3685782	-50.45349955	-10.49184192
245	2	0	5.213203	-43.79443241	-10.58
246	1	0.5897	5.213203	-43.79443241	-9.75936
247	1	0.5897	5.62258	-43.0853726	-10.84864
248	3	-1.1794	5.2785782	-43.68119955	-10.49184192
249	2	0	2.606797	-48.30884759	-11.5
250	1	0.5897	2.19742	-47.5957244	-11.224
251	1	0.5897	3.42907	-48.3068159	-11.224
252	3	-1.1794	2.67235206	-48.19530321	-11.41236448
253	2	0	5.213594	-52.82394	-10.58
254	1	0.5897	5.213594	-52.82394	-9.75936
255	1	0.5897	4.39484	-52.82394	-10.84864
256	3	-1.1794	5.08283578	-52.82394	-10.49184192
257	2	0	6.516797	-41.53654759	-11.5
258	1	0.5897	6.10742	-40.8234244	-11.224
259	1	0.5897	7.33907	-41.5345159	-11.224
260	3	-1.1794	6.58235206	-41.42300321	-11.41236448
261	2	0	1.303594	-46.05164	-10.58
262	1	0.5897	1.303594	-46.05164	-9.75936
263	1	0.5897	0.48484	-46.05164	-10.84864
264	3	-1.1794	1.17283578	-46.05164	-10.49184192
265	2	0	2.606406	-52.82394	-11.5
266	1	0.5897	2.19351	-52.1128485	-11.224
267	1	0.5897	2.19351	-53.5350315	-11.224
268	3	-1.1794	2.4753037	-52.82394	-11.41236448
269	2	0	6.516406	-46.05164	-11.5
270	1	0.5897	6.10351	-45.3405485	-11.224
271	1	0.5897	6.10351	-46.7627315	-11.224
272	3	-1.1794	6.3853037	-46.05164	-11.41236448
273	2	0	2.606406	-52.82394	-14.26
274	1	0.5897	2.606406	-52.82394	-13.43936
275	1	0.5897	3.42516	-52.82394	-14.52864
276	3	-1.1794	2.73716422	-52.82394	-14.17184266
277	2	0	6.516406	-46.05164	-14.26
278	1	0.5897	6.516406	-46.05164	-13.43936
279	1	0.5897	7.33516	-46.05164	-14.52864
280	3	-1.1794	6.64716422	-46.05164	-14.17184266
281	2	0	5.213594	-52.82394	-7.82
282	1	0.5897	5.62649	-52.1128485	-7.544
283	1	0.5897	5.62649	-53.5350315	-7.544
284	3	-1.1794	5.3446963	-52.82394	-7.73236448
285	2	0	1.303594	-46.05164	-7.82
286	1	0.5897	1.71649	-45.3405485	-7.544
287	1	0.5897	1.71649	-46.7627315	-7.544
288	3	-1.1794	1.4346963	-46.05164	-7.73236448
289	2	0	6.516797	-50.56673241	-4.14
290	1	0.5897	6.10742	-51.2798556	-3.864
291	1	0.5897	7.33907	-50.5687641	-3.864
292	3	-1.1794	6.58235206	-50.68027679	-4.05236448
293	2	0	2.606797	-43.79443241	-4.14
294	1	0.5897	2.19742	-44.5075556	-3.864
295	1	0.5897	3.42907	-43.7964641	-3.864
296	3	-1.1794	2.67235206	-43.90797679	-4.05236448
297	2	0	6.516797	-50.56673241	-6.9
298	1	0.5897	6.516797	-50.56673241	-6.07936
299	1	0.5897	6.10742	-49.8576726	-7.16864
300	3	-1.1794	6.4514218	-50.45349955	-6.811842656
301	2	0	5.213203	-48.30884759	-3.22
302	1	0.5897	5.213203	-48.30884759	-2.39936
303	1	0.5897	5.62258	-49.0179074	-3.48864
304	3	-1.1794	5.2785782	-48.42209399	-3.13184192
305	2	0	2.606797	-43.79443241	-6.9
306	1	0.5897	2.606797	-43.79443241	-6.07936
307	1	0.5897	2.19742	-43.0853726	-7.16864
308	3	-1.1794	2.5414218	-43.68119955	-6.811842656
309	2	0	1.303203	-41.53654759	-3.22
310	1	0.5897	1.303203	-41.53654759	-2.39936
311	1	0.5897	1.71258	-42.2456074	-3.48864
312	3	-1.1794	1.3685782	-41.64979399	-3.13184192
313	2	0	2.606797	-48.30884759	-6.9
314	1	0.5897	2.606797	-48.30884759	-6.07936
315	1	0.5897	2.19742	-49.0179074	-7.16864
316	3	-1.1794	2.5414218	-48.42209399	-6.811842656
317	2	0	6.516797	-41.53654759	-6.9
318	1	0.5897	6.516797	-41.53654759	-6.07936
319	1	0.5897	6.10742	-42.2456074	-7.16864
320	3	-1.1794	6.4514218	-41.64979399	-6.811842656
321	2	0	5.213203	-48.30884759	-0.46
322	1	0.5897	5.62258	-47.5957244	-0.184
323	1	0.5897	4.39093	-48.3068159	-0.184
324	3	-1.1794	5.14764794	-48.19530321	-0.37236448
325	2	0	1.303203	-50.56673241	-0.46
326	1	0.5897	1.71258	-51.2798556	-0.184
327	1	0.5897	0.48093	-50.5687641	-0.184
328	3	-1.1794	1.23764794	-50.68027679	-0.37236448
329	2	0	1.303203	-41.53654759	-0.46
330	1	0.5897	1.71258	-40.8234244	-0.184
331	1	0.5897	0.48093	-41.5345159	-0.184
332	3	-1.1794	1.23764794	-41.42300321	-0.37236448
333	2	0	5.213203	-43.79443241	-0.46
334	1	0.5897	5.62258	-44.5075556	-0.184
335	1	0.5897	4.39093	-43.7964641	-0.184
336	3	-1.1794	5.14764794	-43.90797679	-0.37236448
337	2	0	1.303203	-50.56673241	-3.22
338	1	0.5897	1.303203	-50.56673241	-2.39936
339	1	0.5897	1.71258	-49.8576726	-3.48864
340	3	-1.1794	1.3685782	-50.45349955	-3.13184192
341	2	0	5.213203	-43.79443241	-3.22
342	1	0.5897	5.213203	-43.79443241	-2.39936
343	1	0.5897	5.62258	-43.0853726	-3.48864
344	3	-1.1794	5.2785782	-43.68119955	-3.13184192
345	2	0	2.606797	-48.30884759	-4.14
346	1	0.5897	2.19742	-47.5957244	-3.864
347	1	0.5897	3.42907	-48.3068159	-3.864
348	3	-1.1794	2.67235206	-48.19530321	-4.05236448
349	2	0	5.213594	-52.82394	-3.22
350	1	0.5897	5.213594	-52.82394	-2.39936
351	1	0.5897	4.39484	-52.82394	-3.48864
352	3	-1.1794	5.08283578	-52.82394	-3.13184192
353	2	0	6.516797	-41.53654759	-4.14
354	1	0.5897	6.10742	-40.8234244	-3.864
355	1	0.5897	7.33907	-41.5345159	-3.864
356	3	-1.1794	6.58235206	-41.42300321	-4.05236448
357	2	0	1.303594	-46.05164	-3.22
358	1	0.5897	1.303594	-46.05164	-2.39936
359	1	0.5897	0.48484	-46.05164	-3.48864
360	3	-1.1794	1.17283578	-46.05164	-3.13184192
361	2	0	2.606406	-52.82394	-4.14
362	1	0.5897	2.19351	-52.1128485	-3.864
363	1	0.5897	2.19351	-53.5350315	-3.864
364	3	-1.1794	2.4753037	-52.82394	-4.05236448
365	2	0	6.516406	-46.05164	-4.14
366	1	0.5897	6.10351	-45.3405485	-3.864
367	1	0.5897	6.10351	-46.7627315	-3.864
368	3	-1.1794	6.3853037	-46.05164	-4.05236448
369	2	0	2.606406	-52.82394	-6.9
370	1	0.5897	2.606406	-52.82394	-6.07936
371	1	0.5897	3.42516	-52.82394	-7.16864
372	3	-1.1794	2.73716422	-52.82394	-6.811842656
373	2	0	6.516406	-46.05164	-6.9
374	1	0.5897	6.516406	-46.05164	-6.07936
375	1	0.5897	7.33516	-46.05164	-7.16864
376	3	-1.1794	6.64716422	-46.05164	-6.811842656
377	2	0	5.213594	-52.82394	-0.46
378	1	0.5897	5.62649	-52.1128485	-0.184
379	1	0.5897	5.62649	-53.5350315	-0.184
380	3	-1.1794	5.3446963	-52.82394	-0.37236448
381	2	0	1.303594	-46.05164	-0.46
382	1	0.5897	1.71649	-45.3405485	-0.184
383	1	0.5897	1.71649	-46.7627315	-0.184
384	3	-1.1794	1.4346963	-46.05164	-0.37236448
385	2	0	6.516797	-50.56673241	3.22
386	1	0.5897	6.10742	-51.2798556	3.496
387	1	0.5897	7.33907	-50.5687641	3.496
388	3	-1.1794	6.58235206	-50.68027679	3.30763552
389	2	0	2.606797	-43.79443241	3.22
390	1	0.5897	2.19742	-44.5075556	3.496
391	1	0.5897	3.42907	-43.7964641	3.496
392	3	-1.1794	2.67235206	-43.90797679	3.30763552
393	2	0	6.516797	-50.56673241	0.46
394	1	0.5897	6.516797	-50.56673241	1.28064
395	1	0.5897	6.10742	-49.8576726	0.19136
396	3	-1.1794	6.4514218	-50.45349955	0.548157344
397	2	0	5.213203	-48.30884759	4.14
398	1	0.5897	5.213203	-48.30884759	4.96064
399	1	0.5897	5.62258	-49.0179074	3.87136
400	3	-1.1794	5.2785782	-48.42209399	4.22815808
401	2	0	2.606797	-43.79443241	0.46
402	1	0.5897	2.606797	-43.79443241	1.28064
403	1	0.5897	2.19742	-43.0853726	0.19136
404	3	-1.1794	2.5414218	-43.68119955	0.548157344
405	2	0	1.303203	-41.53654759	4.14
406	1	0.5897	1.303203	-41.53654759	4.96064
407	1	0.5897	1.71258	-42.2456074	3.87136
408	3	-1.1794	1.3685782	-41.64979399	4.22815808
409	2	0	2.606797	-48.30884759	0.46
410	1	0.5897	2.606797	-48.30884759	1.28064
411	1	0.5897	2.19742	-49.0179074	0.19136
412	3	-1.1794	2.5414218	-48.42209399	0.548157344
413	2	0	6.516797	-41.53654759	0.46
414	1	0.5897	6.516797	-41.53654759	1.28064
415	1	0.5897	6.10742	-42.2456074	0.19136
416	3	-1.1794	6.4514218	-41.64979399	0.548157344
417	2	0	5.213203	-48.30884759	6.9
418	1	0.5897	5.62258	-47.5957244	7.176
419	1	0.5897	4.39093	-48.3068159	7.176
420	3	-1.1794	5.14764794	-48.19530321	6.98763552
421	2	0	1.303203	-50.56673241	6.9
422	1	0.5897	1.71258	-51.2798556	7.176
423	1	0.5897	0.48093	-50.5687641	7.176
424	3	-1.1794	1.23764794	-50.68027679	6.98763552
425	2	0	1.303203	-41.53654759	6.9
426	1	0.5897	1.71258	-40.8234244	7.176
427	1	0.5897	0.48093	-41.5345159	7.176
428	3	-1.1794	1.23764794	-41.42300321	6.98763552
429	2	0	5.213203	-43.79443241	6.9
430	1	0.5897	5.62258	-44.5075556	7.176
431	1	0.5897	4.39093	-43.7964641	7.176
432	3	-1.1794	5.14764794	-43.90797679	6.98763552
433	2	0	1.303203	-50.56673241	4.14
434	1	0.5897	1.303203	-50.56673241	4.96064
435	1	0.5897	1.71258	-49.8576726	3.87136
436	3	-1.1794	1.3685782	-50.45349955	4.22815808
437	2	0	5.213203	-43.79443241	4.14
438	1	0.5897	5.213203	-43.79443241	4.96064
439	1	0.5897	5.62258	-43.0853726	3.87136
440	3	-1.1794	5.2785782	-43.68119955	4.22815808
441	2	0	2.606797	-48.30884759	3.22
442	1	0.5897	2.19742	-47.5957244	3.496
443	1	0.5897	3.42907	-48.3068159	3.496
444	3	-1.1794	2.67235206	-48.19530321	3.30763552
445	2	0	5.213594	-52.82394	4.14
446	1	0.5897	5.213594	-52.82394	4.96064
447	1	0.5897	4.39484	-52.82394	3.87136
448	3	-1.1794	5.08283578	-52.82394	4.22815808
449	2	0	6.516797	-41.53654759	3.22
450	1	0.5897	6.10742	-40.8234244	3.496
451	1	0.5897	7.33907	-41.5345159	3.496
452	3	-1.1794	6.58235206	-41.42300321	3.30763552
453	2	0	1.303594	-46.05164	4.14
454	1	0.5897	1.303594	-46.05164	4.96064
455	1	0.5897	0.48484	-46.05164	3.87136
456	3	-1.1794	1.17283578	-46.05164	4.22815808
457	2	0	2.606406	-52.82394	3.22
458	1	0.5897	2.19351	-52.1128485	3.496
459	1	0.5897	2.19351	-53.5350315	3.496
460	3	-1.1794	2.4753037	-52.82394	3.30763552
461	2	0	6.516406	-46.05164	3.22
462	1	0.5897	6.10351	-45.3405485	3.496
463	1	0.5897	6.10351	-46.7627315	3.496
464	3	-1.1794	6.3853037	-46.05164	3.30763552
465	2	0	2.606406	-52.82394	0.46
466	1	0.5897	2.606406	-52.82394	1.28064
467	1	0.5897	3.42516	-52.82394	0.19136
468	3	-1.1794	2.73716422	-52.82394	0.548157344
469	2	0	6.516406	-46.05164	0.46
470	1	0.5897	6.516406	-46.05164	1.28064
471	1	0.5897	7.33516	-46.05164	0.19136
472	3	-1.1794	6.64716422	-46.05164	0.548157344
473	2	0	5.213594	-52.82394	6.9
474	1	0.5897	5.62649	-52.1128485	7.176
475	1	0.5897	5.62649	-53.5350315	7.176
476	3	-1.1794	5.3446963	-52.82394	6.98763552
477	2	0	1.303594	-46.05164	6.9
478	1	0.5897	1.71649	-45.3405485	7.176
479	1	0.5897	1.71649	-46.7627315	7.176
480	3	-1.1794	1.4346963	-46.05164	6.98763552
481	2	0	6.516797	-50.56673241	10.58
482	1	0.5897	6.10742	-51.2798556	10.856
483	1	0.5897	7.33907	-50.5687641	10.856
484	3	-1.1794	6.58235206	-50.68027679	10.66763552
485	2	0	2.606797	-43.79443241	10.58
486	1	0.5897	2.19742	-44.5075556	10.856
487	1	0.5897	3.42907	-43.7964641	10.856
488	3	-1.1794	2.67235206	-43.90797679	10.66763552
489	2	0	6.516797	-50.56673241	7.82
490	1	0.5897	6.516797	-50.56673241	8.64064
491	1	0.5897	6.10742	-49.8576726	7.55136
492	3	-1.1794	6.4514218	-50.45349955	7.908157344
493	2	0	5.213203	-48.30884759	11.5
494	1	0.5897	5.213203	-48.30884759	12.32064
495	1	0.5897	5.62258	-49.0179074	11.23136
496	3	-1.1794	5.2785782	-48.42209399	11.58815808
497	2	0	2.606797	-43.79443241	7.82
498	1	0.5897	2.606797	-43.79443241	8.64064
499	1	0.5897	2.19742	-43.0853726	7.55136
500	3	-1.1794	2.5414218	-43.68119955	7.908157344
501	2	0	1.303203	-41.53654759	11.5
502	1	0.5897	1.303203	-41.53654759	12.32064
503	1	0.5897	1.71258	-42.2456074	11.23136
504	3	-1.1794	1.3685782	-41.64979399	11.58815808
505	2	0	2.606797	-48.30884759	7.82
506	1	0.5897	2.606797	-48.30884759	8.64064
507	1	0.5897	2.19742	-49.0179074	7.55136
508	3	-1.1794	2.5414218	-48.42209399	7.908157344
509	2	0	6.516797	-41.53654759	7.82
510	1	0.5897	6.516797	-41.53654759	8.64064
511	1	0.5897	6.10742	-42.2456074	7.55136
512	3	-1.1794	6.4514218	-41.64979399	7.908157344
513	2	0	5.213203	-48.30884759	14.26
514	1	0.5897	5.62258	-47.5957244	14.536
515	1	0.5897	4.39093	-48.3068159	14.536
516	3	-1.1794	5.14764794	-48.19530321	14.34763552
517	2	0	1.303203	-50.56673241	14.26
518	1	0.5897	1.71258	-51.2798556	14.536
519	1	0.5897	0.48093	-50.5687641	14.536
520	3	-1.1794	1.23764794	-50.68027679	14.34763552
521	2	0	1.303203	-41.53654759	14.26
522	1	0.5897	1.71258	-40.8234244	14.536
523	1	0.5897	0.48093	-41.5345159	14.536
524	3	-1.1794	1.23764794	-41.42300321	14.34763552
525	2	0	5.213203	-43.79443241	14.26
526	1	0.5897	5.62258	-44.5075556	14.536
527	1	0.5897	4.39093	-43.7964641	14.536
528	3	-1.1794	5.14764794	-43.90797679	14.34763552
529	2	0	1.303203	-50.56673241	11.5
530	1	0.5897	1.303203	-50.56673241	12.32064
531	1	0.5897	1.71258	-49.8576726	11.23136
532	3	-1.1794	1.3685782	-50.45349955	11.58815808
533	2	0	5.213203	-43.79443241	11.5
534	1	0.5897	5.213203	-43.79443241	12.32064
535	1	0.5897	5.62258	-43.0853726	11.23136
536	3	-1.1794	5.2785782	-43.68119955	11.58815808
537	2	0	2.606797	-48.30884759	10.58
538	1	0.5897	2.19742	-47.5957244	10.856
539	1	0.5897	3.42907	-48.3068159	10.856
540	3	-1.1794	2.67235206	-48.19530321	10.66763552
541	2	0	5.213594	-52.82394	11.5
542	1	0.5897	5.213594	-52.82394	12.32064
543	1	0.5897	4.39484	-52.82394	11.23136
544	3	-1.1794	5.08283578	-52.82394	11.58815808
545	2	0	6.516797	-41.53654759	10.58
546	1	0.5897	6.10742	-40.8234244	10.856
547	1	0.5897	7.33907	-41.5345159	10.856
548	3	-1.1794	6.58235206	-41.42300321	10.66763552
549	2	0	1.303594	-46.05164	11.5
550	1	0.5897	1.303594	-46.05164	12.32064
551	1	0.5897	0.48484	-46.05164	11.23136
552	3	-1.1794	1.17283578	-46.05164	11.58815808
553	2	0	2.606406	-52.82394	10.58
554	1	0.5897	2.19351	-52.1128485	10.856
555	1	0.5897	2.19351	-53.5350315	10.856
556	3	-1.1794	2.4753037	-52.82394	10.66763552
557	2	0	6.516406	-46.05164	10.58
558	1	0.5897	6.10351	-45.3405485	10.856
559	1	0.5897	6.10351	-46.7627315	10.856
560	3	-1.1794	6.3853037	-46.05164	10.66763552
561	2	0	2.606406	-52.82394	7.82
562	1	0.5897	2.606406	-52.82394	8.64064
563	1	0.5897	3.42516	-52.82394	7.55136
564	3	-1.1794	2.73716422	-52.82394	7.908157344
565	2	0	6.516406	-46.05164	7.82
566	1	0.5897	6.516406	-46.05164	8.64064
567	1	0.5897	7.33516	-46.05164	7.55136
568	3	-1.1794	6.64716422	-46.05164	7.908157344
569	2	0	5.213594	-52.82394	14.26
570	1	0.5897	5.62649	-52.1128485	14.536
571	1	0.5897	5.62649	-53.5350315	14.536
572	3	-1.1794	5.3446963	-52.82394	14.34763552
573	2	0	1.303594	-46.05164	14.26
574	1	0.5897	1.71649	-45.3405485	14.536
575	1	0.5897	1.71649	-46.7627315	14.536
576	3	-1.1794	1.4346963	-46.05164	14.34763552
577	2	0	6.516797	-50.56673241	17.94
578	1	0.5897	6.10742	-51.2798556	18.216
579	1	0.5897	7.33907	-50.5687641	18.216
580	3	-1.1794	6.58235206	-50.68027679	18.02763552
581	2	0	2.606797	-43.79443241	17.94
582	1	0.5897	2.19742	-44.5075556	18.216
583	1	0.5897	3.42907	-43.7964641	18.216
584	3	-1.1794	2.67235206	-43.90797679	18.02763552
585	2	0	6.516797	-50.56673241	15.18
586	1	0.5897	6.516797	-50.56673241	16.00064
587	1	0.5897	6.10742	-49.8576726	14.91136
588	3	-1.1794	6.4514218	-50.45349955	15.26815734
589	2	0	5.213203	-48.30884759	18.86
590	1	0.5897	5.213203	-48.30884759	19.68064
591	1	0.5897	5.62258	-49.0179074	18.59136
592	3	-1.1794	5.2785782	-48.42209399	18.94815808
593	2	0	2.606797	-43.79443241	15.18
594	1	0.5897	2.606797	-43.79443241	16.00064
595	1	0.5897	2.19742	-43.0853726	14.91136
596	3	-1.1794	2.5414218	-43.68119955	15.26815734
597	2	0	1.303203	-41.53654759	18.86
598	1	0.5897	1.303203	-41.53654759	19.68064
599	1	0.5897	1.71258	-42.2456074	18.59136
600	3	-1.1794	1.3685782	-41.64979399	18.94815808
601	2	0	2.606797	-48.30884759	15.18
602	1	0.5897	2.606797	-48.30884759	16.00064
603	1	0.5897	2.19742	-49.0179074	14.91136
604	3	-1.1794	2.5414218	-48.42209399	15.26815734
605	2	0	6.516797	-41.53654759	15.18
606	1	0.5897	6.516797	-41.53654759	16.00064
607	1	0.5897	6.10742	-42.2456074	14.91136
608	3	-1.1794	6.4514218	-41.64979399	15.26815734
609	2	0	5.213203	-48.30884759	21.62
610	1	0.5897	5.62258	-47.5957244	21.896
611	1	0.5897	4.39093	-48.3068159	21.896
612	3	-1.1794	5.14764794	-48.19530321	21.70763552
613	2	0	1.303203	-50.56673241	21.62
614	1	0.5897	1.71258	-51.2798556	21.896
615	1	0.5897	0.48093	-50.5687641	21.896
616	3	-1.1794	1.23764794	-50.68027679	21.70763552
617	2	0	1.303203	-41.53654759	21.62
618	1	0.5897	1.71258	-40.8234244	21.896
619	1	0.5897	0.48093	-41.5345159	21.896
620	3	-1.1794	1.23764794	-41.42300321	21.70763552
621	2	0	5.213203	-43.79443241	21.62
622	1	0.5897	5.62258	-44.5075556	21.896
623	1	0.5897	4.39093	-43.7964641	21.896
624	3	-1.1794	5.14764794	-43.90797679	21.70763552
625	2	0	1.303203	-50.56673241	18.86
626	1	0.5897	1.303203	-50.56673241	19.68064
627	1	0.5897	1.71258	-49.8576726	18.59136
628	3	-1.1794	1.3685782	-50.45349955	18.94815808
629	2	0	5.213203	-43.79443241	18.86
630	1	0.5897	5.213203	-43.79443241	19.68064
631	1	0.5897	5.62258	-43.0853726	18.59136
632	3	-1.1794	5.2785782	-43.68119955	18.94815808
633	2	0	2.606797	-48.30884759	17.94
634	1	0.5897	2.19742	-47.5957244	18.216
635	1	0.5897	3.42907	-48.3068159	18.216
636	3	-1.1794	2.67235206	-48.19530321	18.02763552
637	2	0	5.213594	-52.82394	18.86
638	1	0.5897	5.213594	-52.82394	19.68064
639	1	0.5897	4.39484	-52.82394	18.59136
640	3	-1.1794	5.08283578	-52.82394	18.94815808
641	2	0	6.516797	-41.53654759	17.94
642	1	0.5897	6.10742	-40.8234244	18.216
643	1	0.5897	7.33907	-41.5345159	18.216
644	3	-1.1794	6.58235206	-41.42300321	18.02763552
645	2	0	1.303594	-46.05164	18.86
646	1	0.5897	1.303594	-46.05164	19.68064
647	1	0.5897	0.48484	-46.05164	18.59136
648	3	-1.1794	1.17283578	-46.05164	18.94815808
649	2	0	2.606406	-52.82394	17.94
650	1	0.5897	2.19351	-52.1128485	18.216
651	1	0.5897	2.19351	-53.5350315	18.216
652	3	-1.1794	2.4753037	-52.82394	18.02763552
653	2	0	6.516406	-46.05164	17.94
654	1	0.5897	6.10351	-45.3405485	18.216
655	1	0.5897	6.10351	-46.7627315	18.216
656	3	-1.1794	6.3853037	-46.05164	18.02763552
657	2	0	2.606406	-52.82394	15.18
658	1	0.5897	2.606406	-52.82394	16.00064
659	1	0.5897	3.42516	-52.82394	14.91136
660	3	-1.1794	2.73716422	-52.82394	15.26815734
661	2	0	6.516406	-46.05164	15.18
662	1	0.5897	6.516406	-46.05164	16.00064
663	1	0.5897	7.33516	-46.05164	14.91136
664	3	-1.1794	6.64716422	-46.05164	15.26815734
665	2	0	5.213594	-52.82394	21.62
666	1	0.5897	5.62649	-52.1128485	21.896
667	1	0.5897	5.62649	-53.5350315	21.896
668	3	-1.1794	5.3446963	-52.82394	21.70763552
669	2	0	1.303594	-46.05164	21.62
670	1	0.5897	1.71649	-45.3405485	21.896
671	1	0.5897	1.71649	-46.7627315	21.896
672	3	-1.1794	1.4346963	-46.05164	21.70763552
673	2	0	6.516797	-50.56673241	25.3
674	1	0.5897	6.10742	-51.2798556	25.576
675	1	0.5897	7.33907	-50.5687641	25.576
676	3	-1.1794	6.58235206	-50.68027679	25.38763552
677	2	0	2.606797	-43.79443241	25.3
678	1	0.5897	2.19742	-44.5075556	25.576
679	1	0.5897	3.42907	-43.7964641	25.576
680	3	-1.1794	2.67235206	-43.90797679	25.38763552
681	2	0	6.516797	-50.56673241	22.54
682	1	0.5897	6.516797	-50.56673241	23.36064
683	1	0.5897	6.10742	-49.8576726	22.27136
684	3	-1.1794	6.4514218	-50.45349955	22.62815734
685	2	0	5.213203	-48.30884759	26.22
686	1	0.5897	5.213203	-48.30884759	27.04064
687	1	0.5897	5.62258	-49.0179074	25.95136
688	3	-1.1794	5.2785782	-48.42209399	26.30815808
689	2	0	2.606797	-43.79443241	22.54
690	1	0.5897	2.606797	-43.79443241	23.36064
691	1	0.5897	2.19742	-43.0853726	22.27136
692	3	-1.1794	2.5414218	-43.68119955	22.62815734
693	2	0	1.303203	-41.53654759	26.22
694	1	0.5897	1.303203	-41.53654759	27.04064
695	1	0.5897	1.71258	-42.2456074	25.95136
696	3	-1.1794	1.3685782	-41.64979399	26.30815808
697	2	0	2.606797	-48.30884759	22.54