# LAMMPS data file written by OVITO Basic 3.10.6

3888 atoms
3 atom types

-150 170.38 xlo xhi
0 121.9014 ylo yhi
0 66.24 zlo zhi

Masses
 
            1   1.00800000              # H
            2   15.99900000             # O
   	        3   1e-100			# M

Atoms # charge 

1 2 0 -10.834635 -50.566732 33.703367
2 1 0.5897 -11.077365 -51.279856 34.133306
3 1 0.5897 -9.975739 -50.568764 33.582503
4 3 -1.1794 -10.736810 -50.680274 33.752437
5 2 0 -12.068925 -50.566732 31.234738
6 1 0.5897 -11.701930 -50.566732 31.968744
7 1 0.5897 -12.555222 -49.857673 31.177534
8 3 -1.1794 -12.087978 -50.453493 31.342826
9 2 0 -11.589179 -48.308848 35.109219
10 1 0.5897 -11.222183 -48.308848 35.843224
11 1 0.5897 -11.343157 -49.017907 34.685863
12 3 -1.1794 -11.491277 -48.422087 35.158831
13 2 0 -12.068925 -41.536548 31.234738
14 1 0.5897 -11.701930 -41.536548 31.968744
15 1 0.5897 -12.555222 -42.245607 31.177534
16 3 -1.1794 -12.087978 -41.649787 31.342826
17 2 0 -10.354888 -48.308848 37.577847
18 1 0.5897 -9.865300 -47.595724 37.641634
19 1 0.5897 -10.966925 -48.306816 38.192436
20 3 -1.1794 -10.374328 -48.195306 37.685549
21 2 0 -10.354888 -43.794432 37.577847
22 1 0.5897 -9.865300 -44.507556 37.641634
23 1 0.5897 -10.966925 -43.796464 38.192436
24 3 -1.1794 -10.374328 -43.907974 37.685549
25 2 0 -11.589179 -43.794432 35.109219
26 1 0.5897 -11.222183 -43.794432 35.843224
27 1 0.5897 -11.343157 -43.085373 34.685863
28 3 -1.1794 -11.491277 -43.681193 35.158831
29 2 0 -11.588829 -52.823940 35.109044
30 1 0.5897 -11.221833 -52.823940 35.843049
31 1 0.5897 -12.441285 -52.823940 35.234916
32 3 -1.1794 -11.666359 -52.823940 35.246370
33 2 0 -10.834635 -41.536548 33.703367
34 1 0.5897 -11.077365 -40.823424 34.133306
35 1 0.5897 -9.975739 -41.534516 33.582503
36 3 -1.1794 -10.736810 -41.423006 33.752437
37 2 0 -10.834984 -46.051640 33.703541
38 1 0.5897 -11.080862 -45.340548 34.135054
39 1 0.5897 -11.080862 -46.762732 34.135054
40 3 -1.1794 -10.913057 -46.051640 33.840559
41 2 0 -12.069275 -46.051640 31.234913
42 1 0.5897 -11.702279 -46.051640 31.968918
43 1 0.5897 -11.457094 -46.051640 30.628481
44 3 -1.1794 -11.912897 -46.051640 31.255287
45 2 0 -10.354538 -52.823940 37.577672
46 1 0.5897 -9.861802 -52.112848 37.639885
47 1 0.5897 -9.861802 -53.535032 37.639885
48 3 -1.1794 -10.198081 -52.823940 37.597427
49 2 0 -11.040416 -43.794432 42.034954
50 1 0.5897 -11.283146 -44.507556 42.464893
51 1 0.5897 -10.181521 -43.796464 41.914091
52 3 -1.1794 -10.942591 -43.907974 42.084025
53 2 0 -12.274707 -43.794432 39.566326
54 1 0.5897 -11.907711 -43.794432 40.300331
55 1 0.5897 -12.761004 -43.085373 39.509122
56 3 -1.1794 -12.293760 -43.681193 39.674414
57 2 0 -11.794960 -41.536548 43.440806
58 1 0.5897 -11.427965 -41.536548 44.174812
59 1 0.5897 -11.548939 -42.245607 43.017450
60 3 -1.1794 -11.697059 -41.649787 43.490419
61 2 0 -12.274707 -48.308848 39.566326
62 1 0.5897 -11.907711 -48.308848 40.300331
63 1 0.5897 -12.761004 -49.017907 39.509122
64 3 -1.1794 -12.293760 -48.422087 39.674414
65 2 0 -10.560670 -50.566732 45.909435
66 1 0.5897 -10.071081 -51.279856 45.973222
67 1 0.5897 -11.172707 -50.568764 46.524024
68 3 -1.1794 -10.580110 -50.680274 46.017137
69 2 0 -10.560670 -41.536548 45.909435
70 1 0.5897 -10.071081 -40.823424 45.973222
71 1 0.5897 -11.172707 -41.534516 46.524024
72 3 -1.1794 -10.580110 -41.423006 46.017137
73 2 0 -11.794960 -50.566732 43.440806
74 1 0.5897 -11.427965 -50.566732 44.174812
75 1 0.5897 -11.548939 -49.857673 43.017450
76 3 -1.1794 -11.697059 -50.453493 43.490419
77 2 0 -11.040416 -48.308848 42.034954
78 1 0.5897 -11.283146 -47.595724 42.464893
79 1 0.5897 -10.181521 -48.306816 41.914091
80 3 -1.1794 -10.942591 -48.195306 42.084025
81 2 0 -11.794611 -46.051640 43.440632
82 1 0.5897 -11.427615 -46.051640 44.174637
83 1 0.5897 -12.647067 -46.051640 43.566504
84 3 -1.1794 -11.872140 -46.051640 43.577958
85 2 0 -11.040766 -52.823940 42.035129
86 1 0.5897 -11.286644 -52.112848 42.466642
87 1 0.5897 -11.286644 -53.535032 42.466642
88 3 -1.1794 -11.118839 -52.823940 42.172147
89 2 0 -12.275057 -52.823940 39.566501
90 1 0.5897 -11.908061 -52.823940 40.300506
91 1 0.5897 -11.662876 -52.823940 38.960068
92 3 -1.1794 -12.118678 -52.823940 39.586875
93 2 0 -10.560320 -46.051640 45.909260
94 1 0.5897 -10.067584 -45.340548 45.971473
95 1 0.5897 -10.067584 -46.762732 45.971473
96 3 -1.1794 -10.403862 -46.051640 45.929015
97 2 0 -10.834635 -37.022132 33.703367
98 1 0.5897 -11.077365 -37.735256 34.133306
99 1 0.5897 -9.975739 -37.024164 33.582503
100 3 -1.1794 -10.736810 -37.135674 33.752437
101 2 0 -12.068925 -37.022132 31.234738
102 1 0.5897 -11.701930 -37.022132 31.968744
103 1 0.5897 -12.555222 -36.313073 31.177534
104 3 -1.1794 -12.087978 -36.908893 31.342826
105 2 0 -11.589179 -34.764248 35.109219
106 1 0.5897 -11.222183 -34.764248 35.843224
107 1 0.5897 -11.343157 -35.473307 34.685863
108 3 -1.1794 -11.491277 -34.877487 35.158831
109 2 0 -12.068925 -27.991948 31.234738
110 1 0.5897 -11.701930 -27.991948 31.968744
111 1 0.5897 -12.555222 -28.701007 31.177534
112 3 -1.1794 -12.087978 -28.105187 31.342826
113 2 0 -10.354888 -34.764248 37.577847
114 1 0.5897 -9.865300 -34.051124 37.641634
115 1 0.5897 -10.966925 -34.762216 38.192436
116 3 -1.1794 -10.374328 -34.650706 37.685549
117 2 0 -10.354888 -30.249832 37.577847
118 1 0.5897 -9.865300 -30.962956 37.641634
119 1 0.5897 -10.966925 -30.251864 38.192436
120 3 -1.1794 -10.374328 -30.363374 37.685549
121 2 0 -11.589179 -30.249832 35.109219
122 1 0.5897 -11.222183 -30.249832 35.843224
123 1 0.5897 -11.343157 -29.540773 34.685863
124 3 -1.1794 -11.491277 -30.136593 35.158831
125 2 0 -11.588829 -39.279340 35.109044
126 1 0.5897 -11.221833 -39.279340 35.843049
127 1 0.5897 -12.441285 -39.279340 35.234916
128 3 -1.1794 -11.666359 -39.279340 35.246370
129 2 0 -10.834635 -27.991948 33.703367
130 1 0.5897 -11.077365 -27.278824 34.133306
131 1 0.5897 -9.975739 -27.989916 33.582503
132 3 -1.1794 -10.736810 -27.878406 33.752437
133 2 0 -10.834984 -32.507040 33.703541
134 1 0.5897 -11.080862 -31.795949 34.135054
135 1 0.5897 -11.080862 -33.218131 34.135054
136 3 -1.1794 -10.913057 -32.507040 33.840559
137 2 0 -12.069275 -32.507040 31.234913
138 1 0.5897 -11.702279 -32.507040 31.968918
139 1 0.5897 -11.457094 -32.507040 30.628481
140 3 -1.1794 -11.912897 -32.507040 31.255287
141 2 0 -10.354538 -39.279340 37.577672
142 1 0.5897 -9.861802 -38.568249 37.639885
143 1 0.5897 -9.861802 -39.990431 37.639885
144 3 -1.1794 -10.198081 -39.279340 37.597427
145 2 0 -11.040416 -30.249832 42.034954
146 1 0.5897 -11.283146 -30.962956 42.464893
147 1 0.5897 -10.181521 -30.251864 41.914091
148 3 -1.1794 -10.942591 -30.363374 42.084025
149 2 0 -12.274707 -30.249832 39.566326
150 1 0.5897 -11.907711 -30.249832 40.300331
151 1 0.5897 -12.761004 -29.540773 39.509122
152 3 -1.1794 -12.293760 -30.136593 39.674414
153 2 0 -11.794960 -27.991948 43.440806
154 1 0.5897 -11.427965 -27.991948 44.174812
155 1 0.5897 -11.548939 -28.701007 43.017450
156 3 -1.1794 -11.697059 -28.105187 43.490419
157 2 0 -12.274707 -34.764248 39.566326
158 1 0.5897 -11.907711 -34.764248 40.300331
159 1 0.5897 -12.761004 -35.473307 39.509122
160 3 -1.1794 -12.293760 -34.877487 39.674414
161 2 0 -10.560670 -37.022132 45.909435
162 1 0.5897 -10.071081 -37.735256 45.973222
163 1 0.5897 -11.172707 -37.024164 46.524024
164 3 -1.1794 -10.580110 -37.135674 46.017137
165 2 0 -10.560670 -27.991948 45.909435
166 1 0.5897 -10.071081 -27.278824 45.973222
167 1 0.5897 -11.172707 -27.989916 46.524024
168 3 -1.1794 -10.580110 -27.878406 46.017137
169 2 0 -11.794960 -37.022132 43.440806
170 1 0.5897 -11.427965 -37.022132 44.174812
171 1 0.5897 -11.548939 -36.313073 43.017450
172 3 -1.1794 -11.697059 -36.908893 43.490419
173 2 0 -11.040416 -34.764248 42.034954
174 1 0.5897 -11.283146 -34.051124 42.464893
175 1 0.5897 -10.181521 -34.762216 41.914091
176 3 -1.1794 -10.942591 -34.650706 42.084025
177 2 0 -11.794611 -32.507040 43.440632
178 1 0.5897 -11.427615 -32.507040 44.174637
179 1 0.5897 -12.647067 -32.507040 43.566504
180 3 -1.1794 -11.872140 -32.507040 43.577958
181 2 0 -11.040766 -39.279340 42.035129
182 1 0.5897 -11.286644 -38.568249 42.466642
183 1 0.5897 -11.286644 -39.990431 42.466642
184 3 -1.1794 -11.118839 -39.279340 42.172147
185 2 0 -12.275057 -39.279340 39.566501
186 1 0.5897 -11.908061 -39.279340 40.300506
187 1 0.5897 -11.662876 -39.279340 38.960068
188 3 -1.1794 -12.118678 -39.279340 39.586875
189 2 0 -10.560320 -32.507040 45.909260
190 1 0.5897 -10.067584 -31.795949 45.971473
191 1 0.5897 -10.067584 -33.218131 45.971473
192 3 -1.1794 -10.403862 -32.507040 45.929015
193 2 0 -10.834635 -23.477532 33.703367
194 1 0.5897 -11.077365 -24.190656 34.133306
195 1 0.5897 -9.975739 -23.479564 33.582503
196 3 -1.1794 -10.736810 -23.591074 33.752437
197 2 0 -12.068925 -23.477532 31.234738
198 1 0.5897 -11.701930 -23.477532 31.968744
199 1 0.5897 -12.555222 -22.768473 31.177534
200 3 -1.1794 -12.087978 -23.364293 31.342826
201 2 0 -11.589179 -21.219648 35.109219
202 1 0.5897 -11.222183 -21.219648 35.843224
203 1 0.5897 -11.343157 -21.928707 34.685863
204 3 -1.1794 -11.491277 -21.332887 35.158831
205 2 0 -12.068925 -14.447348 31.234738
206 1 0.5897 -11.701930 -14.447348 31.968744
207 1 0.5897 -12.555222 -15.156407 31.177534
208 3 -1.1794 -12.087978 -14.560587 31.342826
209 2 0 -10.354888 -21.219648 37.577847
210 1 0.5897 -9.865300 -20.506524 37.641634
211 1 0.5897 -10.966925 -21.217616 38.192436
212 3 -1.1794 -10.374328 -21.106106 37.685549
213 2 0 -10.354888 -16.705232 37.577847
214 1 0.5897 -9.865300 -17.418356 37.641634
215 1 0.5897 -10.966925 -16.707264 38.192436
216 3 -1.1794 -10.374328 -16.818774 37.685549
217 2 0 -11.589179 -16.705232 35.109219
218 1 0.5897 -11.222183 -16.705232 35.843224
219 1 0.5897 -11.343157 -15.996173 34.685863
220 3 -1.1794 -11.491277 -16.591993 35.158831
221 2 0 -11.588829 -25.734740 35.109044
222 1 0.5897 -11.221833 -25.734740 35.843049
223 1 0.5897 -12.441285 -25.734740 35.234916
224 3 -1.1794 -11.666359 -25.734740 35.246370
225 2 0 -10.834635 -14.447348 33.703367
226 1 0.5897 -11.077365 -13.734224 34.133306
227 1 0.5897 -9.975739 -14.445316 33.582503
228 3 -1.1794 -10.736810 -14.333806 33.752437
229 2 0 -10.834984 -18.962440 33.703541
230 1 0.5897 -11.080862 -18.251348 34.135054
231 1 0.5897 -11.080862 -19.673531 34.135054
232 3 -1.1794 -10.913057 -18.962440 33.840559
233 2 0 -12.069275 -18.962440 31.234913
234 1 0.5897 -11.702279 -18.962440 31.968918
235 1 0.5897 -11.457094 -18.962440 30.628481
236 3 -1.1794 -11.912897 -18.962440 31.255287
237 2 0 -10.354538 -25.734740 37.577672
238 1 0.5897 -9.861802 -25.023649 37.639885
239 1 0.5897 -9.861802 -26.445832 37.639885
240 3 -1.1794 -10.198081 -25.734740 37.597427
241 2 0 -11.040416 -16.705232 42.034954
242 1 0.5897 -11.283146 -17.418356 42.464893
243 1 0.5897 -10.181521 -16.707264 41.914091
244 3 -1.1794 -10.942591 -16.818774 42.084025
245 2 0 -12.274707 -16.705232 39.566326
246 1 0.5897 -11.907711 -16.705232 40.300331
247 1 0.5897 -12.761004 -15.996173 39.509122
248 3 -1.1794 -12.293760 -16.591993 39.674414
249 2 0 -11.794960 -14.447348 43.440806
250 1 0.5897 -11.427965 -14.447348 44.174812
251 1 0.5897 -11.548939 -15.156407 43.017450
252 3 -1.1794 -11.697059 -14.560587 43.490419
253 2 0 -12.274707 -21.219648 39.566326
254 1 0.5897 -11.907711 -21.219648 40.300331
255 1 0.5897 -12.761004 -21.928707 39.509122
256 3 -1.1794 -12.293760 -21.332887 39.674414
257 2 0 -10.560670 -23.477532 45.909435
258 1 0.5897 -10.071081 -24.190656 45.973222
259 1 0.5897 -11.172707 -23.479564 46.524024
260 3 -1.1794 -10.580110 -23.591074 46.017137
261 2 0 -10.560670 -14.447348 45.909435
262 1 0.5897 -10.071081 -13.734224 45.973222
263 1 0.5897 -11.172707 -14.445316 46.524024
264 3 -1.1794 -10.580110 -14.333806 46.017137
265 2 0 -11.794960 -23.477532 43.440806
266 1 0.5897 -11.427965 -23.477532 44.174812
267 1 0.5897 -11.548939 -22.768473 43.017450
268 3 -1.1794 -11.697059 -23.364293 43.490419
269 2 0 -11.040416 -21.219648 42.034954
270 1 0.5897 -11.283146 -20.506524 42.464893
271 1 0.5897 -10.181521 -21.217616 41.914091
272 3 -1.1794 -10.942591 -21.106106 42.084025
273 2 0 -11.794611 -18.962440 43.440632
274 1 0.5897 -11.427615 -18.962440 44.174637
275 1 0.5897 -12.647067 -18.962440 43.566504
276 3 -1.1794 -11.872140 -18.962440 43.577958
277 2 0 -11.040766 -25.734740 42.035129
278 1 0.5897 -11.286644 -25.023649 42.466642
279 1 0.5897 -11.286644 -26.445832 42.466642
280 3 -1.1794 -11.118839 -25.734740 42.172147
281 2 0 -12.275057 -25.734740 39.566501
282 1 0.5897 -11.908061 -25.734740 40.300506
283 1 0.5897 -11.662876 -25.734740 38.960068
284 3 -1.1794 -12.118678 -25.734740 39.586875
285 2 0 -10.560320 -18.962440 45.909260
286 1 0.5897 -10.067584 -18.251348 45.971473
287 1 0.5897 -10.067584 -19.673531 45.971473
288 3 -1.1794 -10.403862 -18.962440 45.929015
289 2 0 -10.834635 -9.932932 33.703367
290 1 0.5897 -11.077365 -10.646056 34.133306
291 1 0.5897 -9.975739 -9.934964 33.582503
292 3 -1.1794 -10.736810 -10.046474 33.752437
293 2 0 -12.068925 -9.932932 31.234738
294 1 0.5897 -11.701930 -9.932932 31.968744
295 1 0.5897 -12.555222 -9.223873 31.177534
296 3 -1.1794 -12.087978 -9.819693 31.342826
297 2 0 -11.589179 -7.675048 35.109219
298 1 0.5897 -11.222183 -7.675048 35.843224
299 1 0.5897 -11.343157 -8.384107 34.685863
300 3 -1.1794 -11.491277 -7.788287 35.158831
301 2 0 -12.068925 -0.902748 31.234738
302 1 0.5897 -11.701930 -0.902748 31.968744
303 1 0.5897 -12.555222 -1.611807 31.177534
304 3 -1.1794 -12.087978 -1.015987 31.342826
305 2 0 -10.354888 -7.675048 37.577847
306 1 0.5897 -9.865300 -6.961924 37.641634
307 1 0.5897 -10.966925 -7.673016 38.192436
308 3 -1.1794 -10.374328 -7.561506 37.685549
309 2 0 -10.354888 -3.160632 37.577847
310 1 0.5897 -9.865300 -3.873756 37.641634
311 1 0.5897 -10.966925 -3.162664 38.192436
312 3 -1.1794 -10.374328 -3.274174 37.685549
313 2 0 -11.589179 -3.160632 35.109219
314 1 0.5897 -11.222183 -3.160632 35.843224
315 1 0.5897 -11.343157 -2.451573 34.685863
316 3 -1.1794 -11.491277 -3.047393 35.158831
317 2 0 -11.588829 -12.190140 35.109044
318 1 0.5897 -11.221833 -12.190140 35.843049
319 1 0.5897 -12.441285 -12.190140 35.234916
320 3 -1.1794 -11.666359 -12.190140 35.246370
321 2 0 -10.834635 -0.902748 33.703367
322 1 0.5897 -11.077365 -0.189624 34.133306
323 1 0.5897 -9.975739 -0.900716 33.582503
324 3 -1.1794 -10.736810 -0.789206 33.752437
325 2 0 -10.834984 -5.417840 33.703541
326 1 0.5897 -11.080862 -4.706748 34.135054
327 1 0.5897 -11.080862 -6.128932 34.135054
328 3 -1.1794 -10.913057 -5.417840 33.840559
329 2 0 -12.069275 -5.417840 31.234913
330 1 0.5897 -11.702279 -5.417840 31.968918
331 1 0.5897 -11.457094 -5.417840 30.628481
332 3 -1.1794 -11.912897 -5.417840 31.255287
333 2 0 -10.354538 -12.190140 37.577672
334 1 0.5897 -9.861802 -11.479048 37.639885
335 1 0.5897 -9.861802 -12.901231 37.639885
336 3 -1.1794 -10.198081 -12.190140 37.597427
337 2 0 -11.040416 -3.160632 42.034954
338 1 0.5897 -11.283146 -3.873756 42.464893
339 1 0.5897 -10.181521 -3.162664 41.914091
340 3 -1.1794 -10.942591 -3.274174 42.084025
341 2 0 -12.274707 -3.160632 39.566326
342 1 0.5897 -11.907711 -3.160632 40.300331
343 1 0.5897 -12.761004 -2.451573 39.509122
344 3 -1.1794 -12.293760 -3.047393 39.674414
345 2 0 -11.794960 -0.902748 43.440806
346 1 0.5897 -11.427965 -0.902748 44.174812
347 1 0.5897 -11.548939 -1.611807 43.017450
348 3 -1.1794 -11.697059 -1.015987 43.490419
349 2 0 -12.274707 -7.675048 39.566326
350 1 0.5897 -11.907711 -7.675048 40.300331
351 1 0.5897 -12.761004 -8.384107 39.509122
352 3 -1.1794 -12.293760 -7.788287 39.674414
353 2 0 -10.560670 -9.932932 45.909435
354 1 0.5897 -10.071081 -10.646056 45.973222
355 1 0.5897 -11.172707 -9.934964 46.524024
356 3 -1.1794 -10.580110 -10.046474 46.017137
357 2 0 -10.560670 -0.902748 45.909435
358 1 0.5897 -10.071081 -0.189624 45.973222
359 1 0.5897 -11.172707 -0.900716 46.524024
360 3 -1.1794 -10.580110 -0.789206 46.017137
361 2 0 -11.794960 -9.932932 43.440806
362 1 0.5897 -11.427965 -9.932932 44.174812
363 1 0.5897 -11.548939 -9.223873 43.017450
364 3 -1.1794 -11.697059 -9.819693 43.490419
365 2 0 -11.040416 -7.675048 42.034954
366 1 0.5897 -11.283146 -6.961924 42.464893
367 1 0.5897 -10.181521 -7.673016 41.914091
368 3 -1.1794 -10.942591 -7.561506 42.084025
369 2 0 -11.794611 -5.417840 43.440632
370 1 0.5897 -11.427615 -5.417840 44.174637
371 1 0.5897 -12.647067 -5.417840 43.566504
372 3 -1.1794 -11.872140 -5.417840 43.577958
373 2 0 -11.040766 -12.190140 42.035129
374 1 0.5897 -11.286644 -11.479048 42.466642
375 1 0.5897 -11.286644 -12.901231 42.466642
376 3 -1.1794 -11.118839 -12.190140 42.172147
377 2 0 -12.275057 -12.190140 39.566501
378 1 0.5897 -11.908061 -12.190140 40.300506
379 1 0.5897 -11.662876 -12.190140 38.960068
380 3 -1.1794 -12.118678 -12.190140 39.586875
381 2 0 -10.560320 -5.417840 45.909260
382 1 0.5897 -10.067584 -4.706748 45.971473
383 1 0.5897 -10.067584 -6.128932 45.971473
384 3 -1.1794 -10.403862 -5.417840 45.929015
385 2 0 -10.834635 3.611668 33.703367
386 1 0.5897 -11.077365 2.898544 34.133306
387 1 0.5897 -9.975739 3.609636 33.582503
388 3 -1.1794 -10.736810 3.498126 33.752437
389 2 0 -12.068925 3.611668 31.234738
390 1 0.5897 -11.701930 3.611668 31.968744
391 1 0.5897 -12.555222 4.320727 31.177534
392 3 -1.1794 -12.087978 3.724907 31.342826
393 2 0 -11.589179 5.869552 35.109219
394 1 0.5897 -11.222183 5.869552 35.843224
395 1 0.5897 -11.343157 5.160493 34.685863
396 3 -1.1794 -11.491277 5.756313 35.158831
397 2 0 -12.068925 12.641852 31.234738
398 1 0.5897 -11.701930 12.641852 31.968744
399 1 0.5897 -12.555222 11.932793 31.177534
400 3 -1.1794 -12.087978 12.528613 31.342826
401 2 0 -10.354888 5.869552 37.577847
402 1 0.5897 -9.865300 6.582676 37.641634
403 1 0.5897 -10.966925 5.871584 38.192436
404 3 -1.1794 -10.374328 5.983094 37.685549
405 2 0 -10.354888 10.383968 37.577847
406 1 0.5897 -9.865300 9.670844 37.641634
407 1 0.5897 -10.966925 10.381936 38.192436
408 3 -1.1794 -10.374328 10.270426 37.685549
409 2 0 -11.589179 10.383968 35.109219
410 1 0.5897 -11.222183 10.383968 35.843224
411 1 0.5897 -11.343157 11.093027 34.685863
412 3 -1.1794 -11.491277 10.497207 35.158831
413 2 0 -11.588829 1.354460 35.109044
414 1 0.5897 -11.221833 1.354460 35.843049
415 1 0.5897 -12.441285 1.354460 35.234916
416 3 -1.1794 -11.666359 1.354460 35.246370
417 2 0 -10.834635 12.641852 33.703367
418 1 0.5897 -11.077365 13.354976 34.133306
419 1 0.5897 -9.975739 12.643884 33.582503
420 3 -1.1794 -10.736810 12.755394 33.752437
421 2 0 -10.834984 8.126760 33.703541
422 1 0.5897 -11.080862 8.837851 34.135054
423 1 0.5897 -11.080862 7.415668 34.135054
424 3 -1.1794 -10.913057 8.126760 33.840559
425 2 0 -12.069275 8.126760 31.234913
426 1 0.5897 -11.702279 8.126760 31.968918
427 1 0.5897 -11.457094 8.126760 30.628481
428 3 -1.1794 -11.912897 8.126760 31.255287
429 2 0 -10.354538 1.354460 37.577672
430 1 0.5897 -9.861802 2.065552 37.639885
431 1 0.5897 -9.861802 0.643369 37.639885
432 3 -1.1794 -10.198081 1.354460 37.597427
433 2 0 -11.040416 10.383968 42.034954
434 1 0.5897 -11.283146 9.670844 42.464893
435 1 0.5897 -10.181521 10.381936 41.914091
436 3 -1.1794 -10.942591 10.270426 42.084025
437 2 0 -12.274707 10.383968 39.566326
438 1 0.5897 -11.907711 10.383968 40.300331
439 1 0.5897 -12.761004 11.093027 39.509122
440 3 -1.1794 -12.293760 10.497207 39.674414
441 2 0 -11.794960 12.641852 43.440806
442 1 0.5897 -11.427965 12.641852 44.174812
443 1 0.5897 -11.548939 11.932793 43.017450
444 3 -1.1794 -11.697059 12.528613 43.490419
445 2 0 -12.274707 5.869552 39.566326
446 1 0.5897 -11.907711 5.869552 40.300331
447 1 0.5897 -12.761004 5.160493 39.509122
448 3 -1.1794 -12.293760 5.756313 39.674414
449 2 0 -10.560670 3.611668 45.909435
450 1 0.5897 -10.071081 2.898544 45.973222
451 1 0.5897 -11.172707 3.609636 46.524024
452 3 -1.1794 -10.580110 3.498126 46.017137
453 2 0 -10.560670 12.641852 45.909435
454 1 0.5897 -10.071081 13.354976 45.973222
455 1 0.5897 -11.172707 12.643884 46.524024
456 3 -1.1794 -10.580110 12.755394 46.017137
457 2 0 -11.794960 3.611668 43.440806
458 1 0.5897 -11.427965 3.611668 44.174812
459 1 0.5897 -11.548939 4.320727 43.017450
460 3 -1.1794 -11.697059 3.724907 43.490419
461 2 0 -11.040416 5.869552 42.034954
462 1 0.5897 -11.283146 6.582676 42.464893
463 1 0.5897 -10.181521 5.871584 41.914091
464 3 -1.1794 -10.942591 5.983094 42.084025
465 2 0 -11.794611 8.126760 43.440632
466 1 0.5897 -11.427615 8.126760 44.174637
467 1 0.5897 -12.647067 8.126760 43.566504
468 3 -1.1794 -11.872140 8.126760 43.577958
469 2 0 -11.040766 1.354460 42.035129
470 1 0.5897 -11.286644 2.065552 42.466642
471 1 0.5897 -11.286644 0.643369 42.466642
472 3 -1.1794 -11.118839 1.354460 42.172147
473 2 0 -12.275057 1.354460 39.566501
474 1 0.5897 -11.908061 1.354460 40.300506
475 1 0.5897 -11.662876 1.354460 38.960068
476 3 -1.1794 -12.118678 1.354460 39.586875
477 2 0 -10.560320 8.126760 45.909260
478 1 0.5897 -10.067584 8.837851 45.971473
479 1 0.5897 -10.067584 7.415668 45.971473
480 3 -1.1794 -10.403862 8.126760 45.929015
481 2 0 -10.834635 17.156268 33.703367
482 1 0.5897 -11.077365 16.443144 34.133306
483 1 0.5897 -9.975739 17.154236 33.582503
484 3 -1.1794 -10.736810 17.042726 33.752437
485 2 0 -12.068925 17.156268 31.234738
486 1 0.5897 -11.701930 17.156268 31.968744
487 1 0.5897 -12.555222 17.865327 31.177534
488 3 -1.1794 -12.087978 17.269507 31.342826
489 2 0 -11.589179 19.414152 35.109219
490 1 0.5897 -11.222183 19.414152 35.843224
491 1 0.5897 -11.343157 18.705093 34.685863
492 3 -1.1794 -11.491277 19.300913 35.158831
493 2 0 -12.068925 26.186452 31.234738
494 1 0.5897 -11.701930 26.186452 31.968744
495 1 0.5897 -12.555222 25.477393 31.177534
496 3 -1.1794 -12.087978 26.073213 31.342826
497 2 0 -10.354888 19.414152 37.577847
498 1 0.5897 -9.865300 20.127276 37.641634
499 1 0.5897 -10.966925 19.416184 38.192436
500 3 -1.1794 -10.374328 19.527694 37.685549
501 2 0 -10.354888 23.928568 37.577847
502 1 0.5897 -9.865300 23.215444 37.641634
503 1 0.5897 -10.966925 23.926536 38.192436
504 3 -1.1794 -10.374328 23.815026 37.685549
505 2 0 -11.589179 23.928568 35.109219
506 1 0.5897 -11.222183 23.928568 35.843224
507 1 0.5897 -11.343157 24.637627 34.685863
508 3 -1.1794 -11.491277 24.041807 35.158831
509 2 0 -11.588829 14.899060 35.109044
510 1 0.5897 -11.221833 14.899060 35.843049
511 1 0.5897 -12.441285 14.899060 35.234916
512 3 -1.1794 -11.666359 14.899060 35.246370
513 2 0 -10.834635 26.186452 33.703367
514 1 0.5897 -11.077365 26.899576 34.133306
515 1 0.5897 -9.975739 26.188484 33.582503
516 3 -1.1794 -10.736810 26.299994 33.752437
517 2 0 -10.834984 21.671360 33.703541
518 1 0.5897 -11.080862 22.382451 34.135054
519 1 0.5897 -11.080862 20.960269 34.135054
520 3 -1.1794 -10.913057 21.671360 33.840559
521 2 0 -12.069275 21.671360 31.234913
522 1 0.5897 -11.702279 21.671360 31.968918
523 1 0.5897 -11.457094 21.671360 30.628481
524 3 -1.1794 -11.912897 21.671360 31.255287
525 2 0 -10.354538 14.899060 37.577672
526 1 0.5897 -9.861802 15.610152 37.639885
527 1 0.5897 -9.861802 14.187969 37.639885
528 3 -1.1794 -10.198081 14.899060 37.597427
529 2 0 -11.040416 23.928568 42.034954
530 1 0.5897 -11.283146 23.215444 42.464893
531 1 0.5897 -10.181521 23.926536 41.914091
532 3 -1.1794 -10.942591 23.815026 42.084025
533 2 0 -12.274707 23.928568 39.566326
534 1 0.5897 -11.907711 23.928568 40.300331
535 1 0.5897 -12.761004 24.637627 39.509122
536 3 -1.1794 -12.293760 24.041807 39.674414
537 2 0 -11.794960 26.186452 43.440806
538 1 0.5897 -11.427965 26.186452 44.174812
539 1 0.5897 -11.548939 25.477393 43.017450
540 3 -1.1794 -11.697059 26.073213 43.490419
541 2 0 -12.274707 19.414152 39.566326
542 1 0.5897 -11.907711 19.414152 40.300331
543 1 0.5897 -12.761004 18.705093 39.509122
544 3 -1.1794 -12.293760 19.300913 39.674414
545 2 0 -10.560670 17.156268 45.909435
546 1 0.5897 -10.071081 16.443144 45.973222
547 1 0.5897 -11.172707 17.154236 46.524024
548 3 -1.1794 -10.580110 17.042726 46.017137
549 2 0 -10.560670 26.186452 45.909435
550 1 0.5897 -10.071081 26.899576 45.973222
551 1 0.5897 -11.172707 26.188484 46.524024
552 3 -1.1794 -10.580110 26.299994 46.017137
553 2 0 -11.794960 17.156268 43.440806
554 1 0.5897 -11.427965 17.156268 44.174812
555 1 0.5897 -11.548939 17.865327 43.017450
556 3 -1.1794 -11.697059 17.269507 43.490419
557 2 0 -11.040416 19.414152 42.034954
558 1 0.5897 -11.283146 20.127276 42.464893
559 1 0.5897 -10.181521 19.416184 41.914091
560 3 -1.1794 -10.942591 19.527694 42.084025
561 2 0 -11.794611 21.671360 43.440632
562 1 0.5897 -11.427615 21.671360 44.174637
563 1 0.5897 -12.647067 21.671360 43.566504
564 3 -1.1794 -11.872140 21.671360 43.577958
565 2 0 -11.040766 14.899060 42.035129
566 1 0.5897 -11.286644 15.610152 42.466642
567 1 0.5897 -11.286644 14.187969 42.466642
568 3 -1.1794 -11.118839 14.899060 42.172147
569 2 0 -12.275057 14.899060 39.566501
570 1 0.5897 -11.908061 14.899060 40.300506
571 1 0.5897 -11.662876 14.899060 38.960068
572 3 -1.1794 -12.118678 14.899060 39.586875
573 2 0 -10.560320 21.671360 45.909260
574 1 0.5897 -10.067584 22.382451 45.971473
575 1 0.5897 -10.067584 20.960269 45.971473
576 3 -1.1794 -10.403862 21.671360 45.929015
577 2 0 -10.834635 30.700868 33.703367
578 1 0.5897 -11.077365 29.987744 34.133306
579 1 0.5897 -9.975739 30.698836 33.582503
580 3 -1.1794 -10.736810 30.587326 33.752437
581 2 0 -12.068925 30.700868 31.234738
582 1 0.5897 -11.701930 30.700868 31.968744
583 1 0.5897 -12.555222 31.409927 31.177534
584 3 -1.1794 -12.087978 30.814107 31.342826
585 2 0 -11.589179 32.958752 35.109219
586 1 0.5897 -11.222183 32.958752 35.843224
587 1 0.5897 -11.343157 32.249693 34.685863
588 3 -1.1794 -11.491277 32.845513 35.158831
589 2 0 -12.068925 39.731052 31.234738
590 1 0.5897 -11.701930 39.731052 31.968744
591 1 0.5897 -12.555222 39.021993 31.177534
592 3 -1.1794 -12.087978 39.617813 31.342826
593 2 0 -10.354888 32.958752 37.577847
594 1 0.5897 -9.865300 33.671876 37.641634
595 1 0.5897 -10.966925 32.960784 38.192436
596 3 -1.1794 -10.374328 33.072294 37.685549
597 2 0 -10.354888 37.473168 37.577847
598 1 0.5897 -9.865300 36.760044 37.641634
599 1 0.5897 -10.966925 37.471136 38.192436
600 3 -1.1794 -10.374328 37.359626 37.685549
601 2 0 -11.589179 37.473168 35.109219
602 1 0.5897 -11.222183 37.473168 35.843224
603 1 0.5897 -11.343157 38.182227 34.685863
604 3 -1.1794 -11.491277 37.586407 35.158831
605 2 0 -11.588829 28.443660 35.109044
606 1 0.5897 -11.221833 28.443660 35.843049
607 1 0.5897 -12.441285 28.443660 35.234916
608 3 -1.1794 -11.666359 28.443660 35.246370
609 2 0 -10.834635 39.731052 33.703367
610 1 0.5897 -11.077365 40.444176 34.133306
611 1 0.5897 -9.975739 39.733084 33.582503
612 3 -1.1794 -10.736810 39.844594 33.752437
613 2 0 -10.834984 35.215960 33.703541
614 1 0.5897 -11.080862 35.927051 34.135054
615 1 0.5897 -11.080862 34.504869 34.135054
616 3 -1.1794 -10.913057 35.215960 33.840559
617 2 0 -12.069275 35.215960 31.234913
618 1 0.5897 -11.702279 35.215960 31.968918
619 1 0.5897 -11.457094 35.215960 30.628481
620 3 -1.1794 -11.912897 35.215960 31.255287
621 2 0 -10.354538 28.443660 37.577672
622 1 0.5897 -9.861802 29.154751 37.639885
623 1 0.5897 -9.861802 27.732568 37.639885
624 3 -1.1794 -10.198081 28.443660 37.597427
625 2 0 -11.040416 37.473168 42.034954
626 1 0.5897 -11.283146 36.760044 42.464893
627 1 0.5897 -10.181521 37.471136 41.914091
628 3 -1.1794 -10.942591 37.359626 42.084025
629 2 0 -12.274707 37.473168 39.566326
630 1 0.5897 -11.907711 37.473168 40.300331
631 1 0.5897 -12.761004 38.182227 39.509122
632 3 -1.1794 -12.293760 37.586407 39.674414
633 2 0 -11.794960 39.731052 43.440806
634 1 0.5897 -11.427965 39.731052 44.174812
635 1 0.5897 -11.548939 39.021993 43.017450
636 3 -1.1794 -11.697059 39.617813 43.490419
637 2 0 -12.274707 32.958752 39.566326
638 1 0.5897 -11.907711 32.958752 40.300331
639 1 0.5897 -12.761004 32.249693 39.509122
640 3 -1.1794 -12.293760 32.845513 39.674414
641 2 0 -10.560670 30.700868 45.909435
642 1 0.5897 -10.071081 29.987744 45.973222
643 1 0.5897 -11.172707 30.698836 46.524024
644 3 -1.1794 -10.580110 30.587326 46.017137
645 2 0 -10.560670 39.731052 45.909435
646 1 0.5897 -10.071081 40.444176 45.973222
647 1 0.5897 -11.172707 39.733084 46.524024
648 3 -1.1794 -10.580110 39.844594 46.017137
649 2 0 -11.794960 30.700868 43.440806
650 1 0.5897 -11.427965 30.700868 44.174812
651 1 0.5897 -11.548939 31.409927 43.017450
652 3 -1.1794 -11.697059 30.814107 43.490419
653 2 0 -11.040416 32.958752 42.034954
654 1 0.5897 -11.283146 33.671876 42.464893
655 1 0.5897 -10.181521 32.960784 41.914091
656 3 -1.1794 -10.942591 33.072294 42.084025
657 2 0 -11.794611 35.215960 43.440632
658 1 0.5897 -11.427615 35.215960 44.174637
659 1 0.5897 -12.647067 35.215960 43.566504
660 3 -1.1794 -11.872140 35.215960 43.577958
661 2 0 -11.040766 28.443660 42.035129
662 1 0.5897 -11.286644 29.154751 42.466642
663 1 0.5897 -11.286644 27.732568 42.466642
664 3 -1.1794 -11.118839 28.443660 42.172147
665 2 0 -12.275057 28.443660 39.566501
666 1 0.5897 -11.908061 28.443660 40.300506
667 1 0.5897 -11.662876 28.443660 38.960068
668 3 -1.1794 -12.118678 28.443660 39.586875
669 2 0 -10.560320 35.215960 45.909260
670 1 0.5897 -10.067584 35.927051 45.971473
671 1 0.5897 -10.067584 34.504869 45.971473
672 3 -1.1794 -10.403862 35.215960 45.929015
673 2 0 -10.834635 44.245468 33.703367