ITEM: TIMESTEP
0
ITEM: NUMBER OF ATOMS
3888
ITEM: BOX BOUNDS pp pp pp
-1.5000000000000000e+02 1.7038000000000000e+02
0.0000000000000000e+00 1.2190140000000000e+02
0.0000000000000000e+00 6.6239999999999995e+01
ITEM: ATOMS id type xs ys zs
1 2 0.434376 0.585183 0.508807
2 1 0.433618 0.579333 0.515297
3 1 0.437057 0.585167 0.506982
4 3 0.434681 0.584252 0.509548
5 2 0.430523 0.585183 0.471539
6 1 0.431669 0.585183 0.48262
7 1 0.429005 0.591 0.470675
8 3 0.430464 0.586112 0.473171
9 2 0.432021 0.603706 0.53003
10 1 0.433166 0.603706 0.541111
11 1 0.432789 0.597889 0.523639
12 3 0.432326 0.602777 0.530779
13 2 0.430523 0.659261 0.471539
14 1 0.431669 0.659261 0.48262
15 1 0.429005 0.653444 0.470675
16 3 0.430464 0.658332 0.473171
17 2 0.435873 0.603706 0.567298
18 1 0.437402 0.609556 0.568261
19 1 0.433963 0.603722 0.576577
20 3 0.435813 0.604637 0.568924
21 2 0.435873 0.640739 0.567298
22 1 0.437402 0.634889 0.568261
23 1 0.433963 0.640722 0.576577
24 3 0.435813 0.639807 0.568924
25 2 0.432021 0.640739 0.53003
26 1 0.433166 0.640739 0.541111
27 1 0.432789 0.646556 0.523639
28 3 0.432326 0.641668 0.530779
29 2 0.432022 0.566667 0.530028
30 1 0.433167 0.566667 0.541109
31 1 0.429361 0.566667 0.531928
32 3 0.43178 0.566667 0.532101
33 2 0.434376 0.659261 0.508807
34 1 0.433618 0.665111 0.515297
35 1 0.437057 0.659278 0.506982
36 3 0.434681 0.660193 0.509548
37 2 0.434375 0.622222 0.508809
38 1 0.433607 0.628056 0.515324
39 1 0.433607 0.616389 0.515324
40 3 0.434131 0.622222 0.510878
41 2 0.430522 0.622222 0.471542
42 1 0.431668 0.622222 0.482623
43 1 0.432433 0.622222 0.462386
44 3 0.43101 0.622222 0.471849
45 2 0.435874 0.566667 0.567296
46 1 0.437412 0.5725 0.568235
47 1 0.437412 0.560833 0.568235
48 3 0.436363 0.566667 0.567594
49 2 0.433734 0.640739 0.634586
50 1 0.432976 0.634889 0.641076
51 1 0.436415 0.640722 0.632761
52 3 0.434039 0.639807 0.635326
53 2 0.429881 0.640739 0.597318
54 1 0.431027 0.640739 0.608399
55 1 0.428363 0.646556 0.596454
56 3 0.429822 0.641668 0.598949
57 2 0.431378 0.659261 0.655809
58 1 0.432524 0.659261 0.66689
59 1 0.432146 0.653444 0.649418
60 3 0.431684 0.658332 0.656558
61 2 0.429881 0.603706 0.597318
62 1 0.431027 0.603706 0.608399
63 1 0.428363 0.597889 0.596454
64 3 0.429822 0.602777 0.598949
65 2 0.435231 0.585183 0.693077
66 1 0.436759 0.579333 0.69404
67 1 0.433321 0.585167 0.702355
68 3 0.43517 0.584252 0.694703
69 2 0.435231 0.659261 0.693077
70 1 0.436759 0.665111 0.69404
71 1 0.433321 0.659278 0.702355
72 3 0.43517 0.660193 0.694703
73 2 0.431378 0.585183 0.655809
74 1 0.432524 0.585183 0.66689
75 1 0.432146 0.591 0.649418
76 3 0.431684 0.586112 0.656558
77 2 0.433734 0.603706 0.634586
78 1 0.432976 0.609556 0.641076
79 1 0.436415 0.603722 0.632761
80 3 0.434039 0.604637 0.635326
81 2 0.43138 0.622222 0.655807
82 1 0.432525 0.622222 0.666888
83 1 0.428719 0.622222 0.657707
84 3 0.431138 0.622222 0.65788
85 2 0.433733 0.566667 0.634588
86 1 0.432965 0.5725 0.641103
87 1 0.432965 0.560833 0.641103
88 3 0.433489 0.566667 0.636657
89 2 0.42988 0.566667 0.59732
90 1 0.431025 0.566667 0.608401
91 1 0.431791 0.566667 0.588165
92 3 0.430368 0.566667 0.597628
93 2 0.435232 0.622222 0.693075
94 1 0.43677 0.628056 0.694014
95 1 0.43677 0.616389 0.694014
96 3 0.435721 0.622222 0.693373
97 2 0.434376 0.696294 0.508807
98 1 0.433618 0.690444 0.515297
99 1 0.437057 0.696278 0.506982
100 3 0.434681 0.695363 0.509548
101 2 0.430523 0.696294 0.471539
102 1 0.431669 0.696294 0.48262
103 1 0.429005 0.702111 0.470675
104 3 0.430464 0.697223 0.473171
105 2 0.432021 0.714817 0.53003
106 1 0.433166 0.714817 0.541111
107 1 0.432789 0.709 0.523639
108 3 0.432326 0.713888 0.530779
109 2 0.430523 0.770372 0.471539
110 1 0.431669 0.770372 0.48262
111 1 0.429005 0.764556 0.470675
112 3 0.430464 0.769443 0.473171
113 2 0.435873 0.714817 0.567298
114 1 0.437402 0.720667 0.568261
115 1 0.433963 0.714833 0.576577
116 3 0.435813 0.715748 0.568924
117 2 0.435873 0.75185 0.567298
118 1 0.437402 0.746 0.568261
119 1 0.433963 0.751833 0.576577
120 3 0.435813 0.750919 0.568924
121 2 0.432021 0.75185 0.53003
122 1 0.433166 0.75185 0.541111
123 1 0.432789 0.757667 0.523639
124 3 0.432326 0.752779 0.530779
125 2 0.432022 0.677778 0.530028
126 1 0.433167 0.677778 0.541109
127 1 0.429361 0.677778 0.531928
128 3 0.43178 0.677778 0.532101
129 2 0.434376 0.770372 0.508807
130 1 0.433618 0.776222 0.515297
131 1 0.437057 0.770389 0.506982
132 3 0.434681 0.771304 0.509548
133 2 0.434375 0.733333 0.508809
134 1 0.433607 0.739167 0.515324
135 1 0.433607 0.7275 0.515324
136 3 0.434131 0.733333 0.510878
137 2 0.430522 0.733333 0.471542
138 1 0.431668 0.733333 0.482623
139 1 0.432433 0.733333 0.462386
140 3 0.43101 0.733333 0.471849
141 2 0.435874 0.677778 0.567296
142 1 0.437412 0.683611 0.568235
143 1 0.437412 0.671944 0.568235
144 3 0.436363 0.677778 0.567594
145 2 0.433734 0.75185 0.634586
146 1 0.432976 0.746 0.641076
147 1 0.436415 0.751833 0.632761
148 3 0.434039 0.750919 0.635326
149 2 0.429881 0.75185 0.597318
150 1 0.431027 0.75185 0.608399
151 1 0.428363 0.757667 0.596454
152 3 0.429822 0.752779 0.598949
153 2 0.431378 0.770372 0.655809
154 1 0.432524 0.770372 0.66689
155 1 0.432146 0.764556 0.649418
156 3 0.431684 0.769443 0.656558
157 2 0.429881 0.714817 0.597318
158 1 0.431027 0.714817 0.608399
159 1 0.428363 0.709 0.596454
160 3 0.429822 0.713888 0.598949
161 2 0.435231 0.696294 0.693077
162 1 0.436759 0.690444 0.69404
163 1 0.433321 0.696278 0.702355
164 3 0.43517 0.695363 0.694703
165 2 0.435231 0.770372 0.693077
166 1 0.436759 0.776222 0.69404
167 1 0.433321 0.770389 0.702355
168 3 0.43517 0.771304 0.694703
169 2 0.431378 0.696294 0.655809
170 1 0.432524 0.696294 0.66689
171 1 0.432146 0.702111 0.649418
172 3 0.431684 0.697223 0.656558
173 2 0.433734 0.714817 0.634586
174 1 0.432976 0.720667 0.641076
175 1 0.436415 0.714833 0.632761
176 3 0.434039 0.715748 0.635326
177 2 0.43138 0.733333 0.655807
178 1 0.432525 0.733333 0.666888
179 1 0.428719 0.733333 0.657707
180 3 0.431138 0.733333 0.65788
181 2 0.433733 0.677778 0.634588
182 1 0.432965 0.683611 0.641103
183 1 0.432965 0.671944 0.641103
184 3 0.433489 0.677778 0.636657
185 2 0.42988 0.677778 0.59732
186 1 0.431025 0.677778 0.608401
187 1 0.431791 0.677778 0.588165
188 3 0.430368 0.677778 0.597628
189 2 0.435232 0.733333 0.693075
190 1 0.43677 0.739167 0.694014
191 1 0.43677 0.7275 0.694014
192 3 0.435721 0.733333 0.693373
193 2 0.434376 0.807406 0.508807
194 1 0.433618 0.801556 0.515297
195 1 0.437057 0.807389 0.506982
196 3 0.434681 0.806474 0.509548
197 2 0.430523 0.807406 0.471539
198 1 0.431669 0.807406 0.48262
199 1 0.429005 0.813222 0.470675
200 3 0.430464 0.808334 0.473171
201 2 0.432021 0.825928 0.53003
202 1 0.433166 0.825928 0.541111
203 1 0.432789 0.820111 0.523639
204 3 0.432326 0.824999 0.530779
205 2 0.430523 0.881483 0.471539
206 1 0.431669 0.881483 0.48262
207 1 0.429005 0.875667 0.470675
208 3 0.430464 0.880554 0.473171
209 2 0.435873 0.825928 0.567298
210 1 0.437402 0.831778 0.568261
211 1 0.433963 0.825944 0.576577
212 3 0.435813 0.826859 0.568924
213 2 0.435873 0.862961 0.567298
214 1 0.437402 0.857111 0.568261
215 1 0.433963 0.862944 0.576577
216 3 0.435813 0.86203 0.568924
217 2 0.432021 0.862961 0.53003
218 1 0.433166 0.862961 0.541111
219 1 0.432789 0.868778 0.523639
220 3 0.432326 0.86389 0.530779
221 2 0.432022 0.788889 0.530028
222 1 0.433167 0.788889 0.541109
223 1 0.429361 0.788889 0.531928
224 3 0.43178 0.788889 0.532101
225 2 0.434376 0.881483 0.508807
226 1 0.433618 0.887333 0.515297
227 1 0.437057 0.8815 0.506982
228 3 0.434681 0.882415 0.509548
229 2 0.434375 0.844444 0.508809
230 1 0.433607 0.850278 0.515324
231 1 0.433607 0.838611 0.515324
232 3 0.434131 0.844444 0.510878
233 2 0.430522 0.844444 0.471542
234 1 0.431668 0.844444 0.482623
235 1 0.432433 0.844444 0.462386
236 3 0.43101 0.844444 0.471849
237 2 0.435874 0.788889 0.567296
238 1 0.437412 0.794722 0.568235
239 1 0.437412 0.783056 0.568235
240 3 0.436363 0.788889 0.567594
241 2 0.433734 0.862961 0.634586
242 1 0.432976 0.857111 0.641076
243 1 0.436415 0.862944 0.632761
244 3 0.434039 0.86203 0.635326
245 2 0.429881 0.862961 0.597318
246 1 0.431027 0.862961 0.608399
247 1 0.428363 0.868778 0.596454
248 3 0.429822 0.86389 0.598949
249 2 0.431378 0.881483 0.655809
250 1 0.432524 0.881483 0.66689
251 1 0.432146 0.875667 0.649418
252 3 0.431684 0.880554 0.656558
253 2 0.429881 0.825928 0.597318
254 1 0.431027 0.825928 0.608399
255 1 0.428363 0.820111 0.596454
256 3 0.429822 0.824999 0.598949
257 2 0.435231 0.807406 0.693077
258 1 0.436759 0.801556 0.69404
259 1 0.433321 0.807389 0.702355
260 3 0.43517 0.806474 0.694703
261 2 0.435231 0.881483 0.693077
262 1 0.436759 0.887333 0.69404
263 1 0.433321 0.8815 0.702355
264 3 0.43517 0.882415 0.694703
265 2 0.431378 0.807406 0.655809
266 1 0.432524 0.807406 0.66689
267 1 0.432146 0.813222 0.649418
268 3 0.431684 0.808334 0.656558
269 2 0.433734 0.825928 0.634586
270 1 0.432976 0.831778 0.641076
271 1 0.436415 0.825944 0.632761
272 3 0.434039 0.826859 0.635326
273 2 0.43138 0.844444 0.655807
274 1 0.432525 0.844444 0.666888
275 1 0.428719 0.844444 0.657707
276 3 0.431138 0.844444 0.65788
277 2 0.433733 0.788889 0.634588
278 1 0.432965 0.794722 0.641103
279 1 0.432965 0.783056 0.641103
280 3 0.433489 0.788889 0.636657
281 2 0.42988 0.788889 0.59732
282 1 0.431025 0.788889 0.608401
283 1 0.431791 0.788889 0.588165
284 3 0.430368 0.788889 0.597628
285 2 0.435232 0.844444 0.693075
286 1 0.43677 0.850278 0.694014
287 1 0.43677 0.838611 0.694014
288 3 0.435721 0.844444 0.693373
289 2 0.434376 0.918517 0.508807
290 1 0.433618 0.912667 0.515297
291 1 0.437057 0.9185 0.506982
292 3 0.434681 0.917585 0.509548
293 2 0.430523 0.918517 0.471539
294 1 0.431669 0.918517 0.48262
295 1 0.429005 0.924333 0.470675
296 3 0.430464 0.919446 0.473171
297 2 0.432021 0.937039 0.53003
298 1 0.433166 0.937039 0.541111
299 1 0.432789 0.931222 0.523639
300 3 0.432326 0.93611 0.530779
301 2 0.430523 0.992594 0.471539
302 1 0.431669 0.992594 0.48262
303 1 0.429005 0.986778 0.470675
304 3 0.430464 0.991666 0.473171
305 2 0.435873 0.937039 0.567298
306 1 0.437402 0.942889 0.568261
307 1 0.433963 0.937056 0.576577
308 3 0.435813 0.93797 0.568924
309 2 0.435873 0.974072 0.567298
310 1 0.437402 0.968222 0.568261
311 1 0.433963 0.974056 0.576577
312 3 0.435813 0.973141 0.568924
313 2 0.432021 0.974072 0.53003
314 1 0.433166 0.974072 0.541111
315 1 0.432789 0.979889 0.523639
316 3 0.432326 0.975001 0.530779
317 2 0.432022 0.9 0.530028
318 1 0.433167 0.9 0.541109
319 1 0.429361 0.9 0.531928
320 3 0.43178 0.9 0.532101
321 2 0.434376 0.992594 0.508807
322 1 0.433618 0.998444 0.515297
323 1 0.437057 0.992611 0.506982
324 3 0.434681 0.993526 0.509548
325 2 0.434375 0.955556 0.508809
326 1 0.433607 0.961389 0.515324
327 1 0.433607 0.949722 0.515324
328 3 0.434131 0.955556 0.510878
329 2 0.430522 0.955556 0.471542
330 1 0.431668 0.955556 0.482623
331 1 0.432433 0.955556 0.462386
332 3 0.43101 0.955556 0.471849
333 2 0.435874 0.9 0.567296
334 1 0.437412 0.905833 0.568235
335 1 0.437412 0.894167 0.568235
336 3 0.436363 0.9 0.567594
337 2 0.433734 0.974072 0.634586
338 1 0.432976 0.968222 0.641076
339 1 0.436415 0.974056 0.632761
340 3 0.434039 0.973141 0.635326
341 2 0.429881 0.974072 0.597318
342 1 0.431027 0.974072 0.608399
343 1 0.428363 0.979889 0.596454
344 3 0.429822 0.975001 0.598949
345 2 0.431378 0.992594 0.655809
346 1 0.432524 0.992594 0.66689
347 1 0.432146 0.986778 0.649418
348 3 0.431684 0.991666 0.656558
349 2 0.429881 0.937039 0.597318
350 1 0.431027 0.937039 0.608399
351 1 0.428363 0.931222 0.596454
352 3 0.429822 0.93611 0.598949
353 2 0.435231 0.918517 0.693077
354 1 0.436759 0.912667 0.69404
355 1 0.433321 0.9185 0.702355
356 3 0.43517 0.917585 0.694703
357 2 0.435231 0.992594 0.693077
358 1 0.436759 0.998444 0.69404
359 1 0.433321 0.992611 0.702355
360 3 0.43517 0.993526 0.694703
361 2 0.431378 0.918517 0.655809
362 1 0.432524 0.918517 0.66689
363 1 0.432146 0.924333 0.649418
364 3 0.431684 0.919446 0.656558
365 2 0.433734 0.937039 0.634586
366 1 0.432976 0.942889 0.641076
367 1 0.436415 0.937056 0.632761
368 3 0.434039 0.93797 0.635326
369 2 0.43138 0.955556 0.655807
370 1 0.432525 0.955556 0.666888
371 1 0.428719 0.955556 0.657707
372 3 0.431138 0.955556 0.65788
373 2 0.433733 0.9 0.634588
374 1 0.432965 0.905833 0.641103
375 1 0.432965 0.894167 0.641103
376 3 0.433489 0.9 0.636657
377 2 0.42988 0.9 0.59732
378 1 0.431025 0.9 0.608401
379 1 0.431791 0.9 0.588165
380 3 0.430368 0.9 0.597628
381 2 0.435232 0.955556 0.693075
382 1 0.43677 0.961389 0.694014
383 1 0.43677 0.949722 0.694014
384 3 0.435721 0.955556 0.693373
385 2 0.434376 0.0296278 0.508807
386 1 0.433618 0.0237778 0.515297
387 1 0.437057 0.0296111 0.506982
388 3 0.434681 0.0286964 0.509548
389 2 0.430523 0.0296278 0.471539
390 1 0.431669 0.0296278 0.48262
391 1 0.429005 0.0354444 0.470675
392 3 0.430464 0.0305567 0.473171
393 2 0.432021 0.04815 0.53003
394 1 0.433166 0.04815 0.541111
395 1 0.432789 0.0423333 0.523639
396 3 0.432326 0.0472211 0.530779
397 2 0.430523 0.103706 0.471539
398 1 0.431669 0.103706 0.48262
399 1 0.429005 0.0978889 0.470675
400 3 0.430464 0.102777 0.473171
401 2 0.435873 0.04815 0.567298
402 1 0.437402 0.054 0.568261
403 1 0.433963 0.0481667 0.576577
404 3 0.435813 0.0490814 0.568924
405 2 0.435873 0.0851833 0.567298
406 1 0.437402 0.0793333 0.568261
407 1 0.433963 0.0851667 0.576577
408 3 0.435813 0.0842519 0.568924
409 2 0.432021 0.0851833 0.53003
410 1 0.433166 0.0851833 0.541111
411 1 0.432789 0.091 0.523639
412 3 0.432326 0.0861123 0.530779
413 2 0.432022 0.0111111 0.530028
414 1 0.433167 0.0111111 0.541109
415 1 0.429361 0.0111111 0.531928
416 3 0.43178 0.0111111 0.532101
417 2 0.434376 0.103706 0.508807
418 1 0.433618 0.109556 0.515297
419 1 0.437057 0.103722 0.506982
420 3 0.434681 0.104637 0.509548
421 2 0.434375 0.0666667 0.508809
422 1 0.433607 0.0725 0.515324
423 1 0.433607 0.0608333 0.515324
424 3 0.434131 0.0666667 0.510878
425 2 0.430522 0.0666667 0.471542
426 1 0.431668 0.0666667 0.482623
427 1 0.432433 0.0666667 0.462386
428 3 0.43101 0.0666667 0.471849
429 2 0.435874 0.0111111 0.567296
430 1 0.437412 0.0169444 0.568235
431 1 0.437412 0.00527778 0.568235
432 3 0.436363 0.0111111 0.567594
433 2 0.433734 0.0851833 0.634586
434 1 0.432976 0.0793333 0.641076
435 1 0.436415 0.0851667 0.632761
436 3 0.434039 0.0842519 0.635326
437 2 0.429881 0.0851833 0.597318
438 1 0.431027 0.0851833 0.608399
439 1 0.428363 0.091 0.596454
440 3 0.429822 0.0861123 0.598949
441 2 0.431378 0.103706 0.655809
442 1 0.432524 0.103706 0.66689
443 1 0.432146 0.0978889 0.649418
444 3 0.431684 0.102777 0.656558
445 2 0.429881 0.04815 0.597318
446 1 0.431027 0.04815 0.608399
447 1 0.428363 0.0423333 0.596454
448 3 0.429822 0.0472211 0.598949
449 2 0.435231 0.0296278 0.693077
450 1 0.436759 0.0237778 0.69404
451 1 0.433321 0.0296111 0.702355
452 3 0.43517 0.0286964 0.694703
453 2 0.435231 0.103706 0.693077
454 1 0.436759 0.109556 0.69404
455 1 0.433321 0.103722 0.702355
456 3 0.43517 0.104637 0.694703
457 2 0.431378 0.0296278 0.655809
458 1 0.432524 0.0296278 0.66689
459 1 0.432146 0.0354444 0.649418
460 3 0.431684 0.0305567 0.656558
461 2 0.433734 0.04815 0.634586
462 1 0.432976 0.054 0.641076
463 1 0.436415 0.0481667 0.632761
464 3 0.434039 0.0490814 0.635326
465 2 0.43138 0.0666667 0.655807
466 1 0.432525 0.0666667 0.666888
467 1 0.428719 0.0666667 0.657707
468 3 0.431138 0.0666667 0.65788
469 2 0.433733 0.0111111 0.634588
470 1 0.432965 0.0169444 0.641103
471 1 0.432965 0.00527778 0.641103
472 3 0.433489 0.0111111 0.636657
473 2 0.42988 0.0111111 0.59732
474 1 0.431025 0.0111111 0.608401
475 1 0.431791 0.0111111 0.588165
476 3 0.430368 0.0111111 0.597628
477 2 0.435232 0.0666667 0.693075
478 1 0.43677 0.0725 0.694014
479 1 0.43677 0.0608333 0.694014
480 3 0.435721 0.0666667 0.693373
481 2 0.434376 0.140739 0.508807
482 1 0.433618 0.134889 0.515297
483 1 0.437057 0.140722 0.506982
484 3 0.434681 0.139807 0.509548
485 2 0.430523 0.140739 0.471539
486 1 0.431669 0.140739 0.48262
487 1 0.429005 0.146556 0.470675
488 3 0.430464 0.141668 0.473171
489 2 0.432021 0.159261 0.53003
490 1 0.433166 0.159261 0.541111
491 1 0.432789 0.153444 0.523639
492 3 0.432326 0.158332 0.530779
493 2 0.430523 0.214817 0.471539
494 1 0.431669 0.214817 0.48262
495 1 0.429005 0.209 0.470675
496 3 0.430464 0.213888 0.473171
497 2 0.435873 0.159261 0.567298
498 1 0.437402 0.165111 0.568261
499 1 0.433963 0.159278 0.576577
500 3 0.435813 0.160193 0.568924
501 2 0.435873 0.196294 0.567298
502 1 0.437402 0.190444 0.568261
503 1 0.433963 0.196278 0.576577
504 3 0.435813 0.195363 0.568924
505 2 0.432021 0.196294 0.53003
506 1 0.433166 0.196294 0.541111
507 1 0.432789 0.202111 0.523639
508 3 0.432326 0.197223 0.530779
509 2 0.432022 0.122222 0.530028
510 1 0.433167 0.122222 0.541109
511 1 0.429361 0.122222 0.531928
512 3 0.43178 0.122222 0.532101
513 2 0.434376 0.214817 0.508807
514 1 0.433618 0.220667 0.515297
515 1 0.437057 0.214833 0.506982
516 3 0.434681 0.215748 0.509548
517 2 0.434375 0.177778 0.508809
518 1 0.433607 0.183611 0.515324
519 1 0.433607 0.171944 0.515324
520 3 0.434131 0.177778 0.510878
521 2 0.430522 0.177778 0.471542
522 1 0.431668 0.177778 0.482623
523 1 0.432433 0.177778 0.462386
524 3 0.43101 0.177778 0.471849
525 2 0.435874 0.122222 0.567296
526 1 0.437412 0.128056 0.568235
527 1 0.437412 0.116389 0.568235
528 3 0.436363 0.122222 0.567594
529 2 0.433734 0.196294 0.634586
530 1 0.432976 0.190444 0.641076
531 1 0.436415 0.196278 0.632761
532 3 0.434039 0.195363 0.635326
533 2 0.429881 0.196294 0.597318
534 1 0.431027 0.196294 0.608399
535 1 0.428363 0.202111 0.596454
536 3 0.429822 0.197223 0.598949
537 2 0.431378 0.214817 0.655809
538 1 0.432524 0.214817 0.66689
539 1 0.432146 0.209 0.649418
540 3 0.431684 0.213888 0.656558
541 2 0.429881 0.159261 0.597318
542 1 0.431027 0.159261 0.608399
543 1 0.428363 0.153444 0.596454
544 3 0.429822 0.158332 0.598949
545 2 0.435231 0.140739 0.693077
546 1 0.436759 0.134889 0.69404
547 1 0.433321 0.140722 0.702355
548 3 0.43517 0.139807 0.694703
549 2 0.435231 0.214817 0.693077
550 1 0.436759 0.220667 0.69404
551 1 0.433321 0.214833 0.702355
552 3 0.43517 0.215748 0.694703
553 2 0.431378 0.140739 0.655809
554 1 0.432524 0.140739 0.66689
555 1 0.432146 0.146556 0.649418
556 3 0.431684 0.141668 0.656558
557 2 0.433734 0.159261 0.634586
558 1 0.432976 0.165111 0.641076
559 1 0.436415 0.159278 0.632761
560 3 0.434039 0.160193 0.635326
561 2 0.43138 0.177778 0.655807
562 1 0.432525 0.177778 0.666888
563 1 0.428719 0.177778 0.657707
564 3 0.431138 0.177778 0.65788
565 2 0.433733 0.122222 0.634588
566 1 0.432965 0.128056 0.641103
567 1 0.432965 0.116389 0.641103
568 3 0.433489 0.122222 0.636657
569 2 0.42988 0.122222 0.59732
570 1 0.431025 0.122222 0.608401
571 1 0.431791 0.122222 0.588165
572 3 0.430368 0.122222 0.597628
573 2 0.435232 0.177778 0.693075
574 1 0.43677 0.183611 0.694014
575 1 0.43677 0.171944 0.694014
576 3 0.435721 0.177778 0.693373
577 2 0.434376 0.25185 0.508807
578 1 0.433618 0.246 0.515297
579 1 0.437057 0.251833 0.506982
580 3 0.434681 0.250919 0.509548
581 2 0.430523 0.25185 0.471539
582 1 0.431669 0.25185 0.48262
583 1 0.429005 0.257667 0.470675
584 3 0.430464 0.252779 0.473171
585 2 0.432021 0.270372 0.53003
586 1 0.433166 0.270372 0.541111
587 1 0.432789 0.264556 0.523639
588 3 0.432326 0.269443 0.530779
589 2 0.430523 0.325928 0.471539
590 1 0.431669 0.325928 0.48262
591 1 0.429005 0.320111 0.470675
592 3 0.430464 0.324999 0.473171
593 2 0.435873 0.270372 0.567298
594 1 0.437402 0.276222 0.568261
595 1 0.433963 0.270389 0.576577
596 3 0.435813 0.271304 0.568924
597 2 0.435873 0.307406 0.567298
598 1 0.437402 0.301556 0.568261
599 1 0.433963 0.307389 0.576577
600 3 0.435813 0.306474 0.568924
601 2 0.432021 0.307406 0.53003
602 1 0.433166 0.307406 0.541111
603 1 0.432789 0.313222 0.523639
604 3 0.432326 0.308334 0.530779
605 2 0.432022 0.233333 0.530028
606 1 0.433167 0.233333 0.541109
607 1 0.429361 0.233333 0.531928
608 3 0.43178 0.233333 0.532101
609 2 0.434376 0.325928 0.508807
610 1 0.433618 0.331778 0.515297
611 1 0.437057 0.325944 0.506982
612 3 0.434681 0.326859 0.509548
613 2 0.434375 0.288889 0.508809
614 1 0.433607 0.294722 0.515324
615 1 0.433607 0.283056 0.515324
616 3 0.434131 0.288889 0.510878
617 2 0.430522 0.288889 0.471542
618 1 0.431668 0.288889 0.482623
619 1 0.432433 0.288889 0.462386
620 3 0.43101 0.288889 0.471849
621 2 0.435874 0.233333 0.567296
622 1 0.437412 0.239167 0.568235
623 1 0.437412 0.2275 0.568235
624 3 0.436363 0.233333 0.567594
625 2 0.433734 0.307406 0.634586
626 1 0.432976 0.301556 0.641076
627 1 0.436415 0.307389 0.632761
628 3 0.434039 0.306474 0.635326
629 2 0.429881 0.307406 0.597318
630 1 0.431027 0.307406 0.608399
631 1 0.428363 0.313222 0.596454
632 3 0.429822 0.308334 0.598949
633 2 0.431378 0.325928 0.655809
634 1 0.432524 0.325928 0.66689
635 1 0.432146 0.320111 0.649418
636 3 0.431684 0.324999 0.656558
637 2 0.429881 0.270372 0.597318
638 1 0.431027 0.270372 0.608399
639 1 0.428363 0.264556 0.596454
640 3 0.429822 0.269443 0.598949
641 2 0.435231 0.25185 0.693077
642 1 0.436759 0.246 0.69404
643 1 0.433321 0.251833 0.702355
644 3 0.43517 0.250919 0.694703
645 2 0.435231 0.325928 0.693077
646 1 0.436759 0.331778 0.69404
647 1 0.433321 0.325944 0.702355
648 3 0.43517 0.326859 0.694703
649 2 0.431378 0.25185 0.655809
650 1 0.432524 0.25185 0.66689
651 1 0.432146 0.257667 0.649418
652 3 0.431684 0.252779 0.656558
653 2 0.433734 0.270372 0.634586
654 1 0.432976 0.276222 0.641076
655 1 0.436415 0.270389 0.632761
656 3 0.434039 0.271304 0.635326
657 2 0.43138 0.288889 0.655807
658 1 0.432525 0.288889 0.666888
659 1 0.428719 0.288889 0.657707
660 3 0.431138 0.288889 0.65788
661 2 0.433733 0.233333 0.634588
662 1 0.432965 0.239167 0.641103
663 1 0.432965 0.2275 0.641103
664 3 0.433489 0.233333 0.636657
665 2 0.42988 0.233333 0.59732
666 1 0.431025 0.233333 0.608401
667 1 0.431791 0.233333 0.588165
668 3 0.430368 0.233333 0.597628
669 2 0.435232 0.288889 0.693075
670 1 0.43677 0.294722 0.694014
671 1 0.43677 0.283056 0.694014
672 3 0.435721 0.288889 0.693373
673 2 0.434376 0.362961 0.508807
674 1 0.433618 0.357111 0.515297
675 1 0.437057 0.362944 0.506982
676 3 0.434681 0.36203 0.509548
677 2 0.430523 0.362961 0.471539
678 1 0.431669 0.362961 0.48262
679 1 0.429005 0.368778 0.470675
680 3 0.430464 0.36389 0.473171
681 2 0.432021 0.381483 0.53003
682 1 0.433166 0.381483 0.541111
683 1 0.432789 0.375667 0.523639
684 3 0.432326 0.380554 0.530779
685 2 0.430523 0.437039 0.471539
686 1 0.431669 0.437039 0.48262
687 1 0.429005 0.431222 0.470675
688 3 0.430464 0.43611 0.473171
689 2 0.435873 0.381483 0.567298
690 1 0.437402 0.387333 0.568261
691 1 0.433963 0.3815 0.576577
692 3 0.435813 0.382415 0.568924
693 2 0.435873 0.418517 0.567298
694 1 0.437402 0.412667 0.568261
695 1 0.433963 0.4185 0.576577
696 3 0.435813 0.417585 0.568924
697 2 0.432021 0.418517 0.53003
698 1 0.433166 0.418517 0.541111
699 1 0.432789 0.424333 0.523639
700 3 0.432326 0.419446 0.530779
701 2 0.432022 0.344444 0.530028
702 1 0.433167 0.344444 0.541109
703 1 0.429361 0.344444 0.531928
704 3 0.43178 0.344444 0.532101
705 2 0.434376 0.437039 0.508807
706 1 0.433618 0.442889 0.515297
707 1 0.437057 0.437056 0.506982
708 3 0.434681 0.43797 0.509548
709 2 0.434375 0.4 0.508809
710 1 0.433607 0.405833 0.515324
711 1 0.433607 0.394167 0.515324
712 3 0.434131 0.4 0.510878
713 2 0.430522 0.4 0.471542
714 1 0.431668 0.4 0.482623
715 1 0.432433 0.4 0.462386
716 3 0.43101 0.4 0.471849
717 2 0.435874 0.344444 0.567296
718 1 0.437412 0.350278 0.568235
719 1 0.437412 0.338611 0.568235
720 3 0.436363 0.344444 0.567594
721 2 0.433734 0.418517 0.634586
722 1 0.432976 0.412667 0.641076
723 1 0.436415 0.4185 0.632761
724 3 0.434039 0.417585 0.635326
725 2 0.429881 0.418517 0.597318
726 1 0.431027 0.418517 0.608399
727 1 0.428363 0.424333 0.596454
728 3 0.429822 0.419446 0.598949
729 2 0.431378 0.437039 0.655809
730 1 0.432524 0.437039 0.66689
731 1 0.432146 0.431222 0.649418
732 3 0.431684 0.43611 0.656558
733 2 0.429881 0.381483 0.597318
734 1 0.431027 0.381483 0.608399
735 1 0.428363 0.375667 0.596454
736 3 0.429822 0.380554 0.598949
737 2 0.435231 0.362961 0.693077
738 1 0.436759 0.357111 0.69404
739 1 0.433321 0.362944 0.702355
740 3 0.43517 0.36203 0.694703
741 2 0.435231 0.437039 0.693077
742 1 0.436759 0.442889 0.69404
743 1 0.433321 0.437056 0.702355
744 3 0.43517 0.43797 0.694703
745 2 0.431378 0.362961 0.655809
746 1 0.432524 0.362961 0.66689
747 1 0.432146 0.368778 0.649418
748 3 0.431684 0.36389 0.656558
749 2 0.433734 0.381483 0.634586
750 1 0.432976 0.387333 0.641076
751 1 0.436415 0.3815 0.632761
752 3 0.434039 0.382415 0.635326
753 2 0.43138 0.4 0.655807
754 1 0.432525 0.4 0.666888
755 1 0.428719 0.4 0.657707
756 3 0.431138 0.4 0.65788
757 2 0.433733 0.344444 0.634588
758 1 0.432965 0.350278 0.641103
759 1 0.432965 0.338611 0.641103
760 3 0.433489 0.344444 0.636657
761 2 0.42988 0.344444 0.59732
762 1 0.431025 0.344444 0.608401
763 1 0.431791 0.344444 0.588165
764 3 0.430368 0.344444 0.597628
765 2 0.435232 0.4 0.693075
766 1 0.43677 0.405833 0.694014
767 1 0.43677 0.394167 0.694014
768 3 0.435721 0.4 0.693373
769 2 0.434376 0.474072 0.508807
770 1 0.433618 0.468222 0.515297
771 1 0.437057 0.474056 0.506982
772 3 0.434681 0.473141 0.509548
773 2 0.430523 0.474072 0.471539
774 1 0.431669 0.474072 0.48262
775 1 0.429005 0.479889 0.470675
776 3 0.430464 0.475001 0.473171
777 2 0.432021 0.492594 0.53003
778 1 0.433166 0.492594 0.541111
779 1 0.432789 0.486778 0.523639
780 3 0.432326 0.491666 0.530779
781 2 0.430523 0.54815 0.471539
782 1 0.431669 0.54815 0.48262
783 1 0.429005 0.542333 0.470675
784 3 0.430464 0.547221 0.473171
785 2 0.435873 0.492594 0.567298
786 1 0.437402 0.498444 0.568261
787 1 0.433963 0.492611 0.576577
788 3 0.435813 0.493526 0.568924
789 2 0.435873 0.529628 0.567298
790 1 0.437402 0.523778 0.568261
791 1 0.433963 0.529611 0.576577
792 3 0.435813 0.528696 0.568924
793 2 0.432021 0.529628 0.53003
794 1 0.433166 0.529628 0.541111
795 1 0.432789 0.535444 0.523639
796 3 0.432326 0.530557 0.530779
797 2 0.432022 0.455556 0.530028
798 1 0.433167 0.455556 0.541109
799 1 0.429361 0.455556 0.531928
800 3 0.43178 0.455556 0.532101
801 2 0.434376 0.54815 0.508807
802 1 0.433618 0.554 0.515297
803 1 0.437057 0.548167 0.506982
804 3 0.434681 0.549081 0.509548
805 2 0.434375 0.511111 0.508809
806 1 0.433607 0.516944 0.515324
807 1 0.433607 0.505278 0.515324
808 3 0.434131 0.511111 0.510878
809 2 0.430522 0.511111 0.471542
810 1 0.431668 0.511111 0.482623
811 1 0.432433 0.511111 0.462386
812 3 0.43101 0.511111 0.471849
813 2 0.435874 0.455556 0.567296
814 1 0.437412 0.461389 0.568235
815 1 0.437412 0.449722 0.568235
816 3 0.436363 0.455556 0.567594
817 2 0.433734 0.529628 0.634586
818 1 0.432976 0.523778 0.641076
819 1 0.436415 0.529611 0.632761
820 3 0.434039 0.528696 0.635326
821 2 0.429881 0.529628 0.597318
822 1 0.431027 0.529628 0.608399
823 1 0.428363 0.535444 0.596454
824 3 0.429822 0.530557 0.598949
825 2 0.431378 0.54815 0.655809
826 1 0.432524 0.54815 0.66689
827 1 0.432146 0.542333 0.649418
828 3 0.431684 0.547221 0.656558
829 2 0.429881 0.492594 0.597318
830 1 0.431027 0.492594 0.608399
831 1 0.428363 0.486778 0.596454
832 3 0.429822 0.491666 0.598949
833 2 0.435231 0.474072 0.693077
834 1 0.436759 0.468222 0.69404
835 1 0.433321 0.474056 0.702355
836 3 0.43517 0.473141 0.694703
837 2 0.435231 0.54815 0.693077
838 1 0.436759 0.554 0.69404
839 1 0.433321 0.548167 0.702355
840 3 0.43517 0.549081 0.694703
841 2 0.431378 0.474072 0.655809
842 1 0.432524 0.474072 0.66689
843 1 0.432146 0.479889 0.649418
844 3 0.431684 0.475001 0.656558
845 2 0.433734 0.492594 0.634586
846 1 0.432976 0.498444 0.641076
847 1 0.436415 0.492611 0.632761
848 3 0.434039 0.493526 0.635326
849 2 0.43138 0.511111 0.655807
850 1 0.432525 0.511111 0.666888
851 1 0.428719 0.511111 0.657707
852 3 0.431138 0.511111 0.65788
853 2 0.433733 0.455556 0.634588
854 1 0.432965 0.461389 0.641103
855 1 0.432965 0.449722 0.641103
856 3 0.433489 0.455556 0.636657
857 2 0.42988 0.455556 0.59732
858 1 0.431025 0.455556 0.608401
859 1 0.431791 0.455556 0.588165
860 3 0.430368 0.455556 0.597628
861 2 0.435232 0.511111 0.693075
862 1 0.43677 0.516944 0.694014
863 1 0.43677 0.505278 0.694014
864 3 0.435721 0.511111 0.693373
865 2 0.435661 0.585183 0.257249
866 1 0.434903 0.579333 0.26374
867 1 0.438341 0.585167 0.255425
868 3 0.435966 0.584252 0.25799
869 2 0.431808 0.585183 0.219981
870 1 0.432953 0.585183 0.231062
871 1 0.43029 0.591 0.219118
872 3 0.431749 0.586112 0.221613
873 2 0.433305 0.603706 0.278473
874 1 0.434451 0.603706 0.289554
875 1 0.434073 0.597889 0.272082
876 3 0.433611 0.602777 0.279222
877 2 0.431808 0.659261 0.219981
878 1 0.432953 0.659261 0.231062
879 1 0.43029 0.653444 0.219118
880 3 0.431749 0.658332 0.221613
881 2 0.437158 0.603706 0.315741
882 1 0.438686 0.609556 0.316704
883 1 0.435248 0.603722 0.325019
884 3 0.437097 0.604637 0.317367
885 2 0.437158 0.640739 0.315741
886 1 0.438686 0.634889 0.316704
887 1 0.435248 0.640722 0.325019
888 3 0.437097 0.639807 0.317367