# LAMMPS data file written by OVITO Basic 3.12.0

6912 atoms
3 atom types

-7.82 23.46 xlo xhi
-67.723 94.8122 ylo yhi
-7.36 14.72 zlo zhi

Masses

1 1.008  # H
2 15.999  # O
3 1e-100 # M

Atoms  # charge

1	2	0	-1.303203	-64.11133241	-4.14
2	1	0.5897	-1.71258	-64.8244556	-3.864
3	1	0.5897	-0.48093	-64.1133641	-3.864
4	3	-1.1794	-1.23764794	-64.22487679	-4.05236448
9	2	0	-1.303203	-64.11133241	-6.9
10	1	0.5897	-1.303203	-64.11133241	-6.07936
11	1	0.5897	-1.71258	-63.4022726	-7.16864
12	3	-1.1794	-1.3685782	-63.99809955	-6.811842656
13	2	0	-2.606797	-61.85344759	-3.22
14	1	0.5897	-2.606797	-61.85344759	-2.39936
15	1	0.5897	-2.19742	-62.5625074	-3.48864
16	3	-1.1794	-2.5414218	-61.96669399	-3.13184192
29	2	0	-1.303203	-55.08114759	-6.9
30	1	0.5897	-1.303203	-55.08114759	-6.07936
31	1	0.5897	-1.71258	-55.7902074	-7.16864
32	3	-1.1794	-1.3685782	-55.19439399	-6.811842656
33	2	0	-2.606797	-61.85344759	-0.46
34	1	0.5897	-2.19742	-61.1403244	-0.184
35	1	0.5897	-3.42907	-61.8514159	-0.184
36	3	-1.1794	-2.67235206	-61.73990321	-0.37236448
45	2	0	-2.606797	-57.33903241	-0.46
46	1	0.5897	-2.19742	-58.0521556	-0.184
47	1	0.5897	-3.42907	-57.3410641	-0.184
48	3	-1.1794	-2.67235206	-57.45257679	-0.37236448
53	2	0	-2.606797	-57.33903241	-3.22
54	1	0.5897	-2.606797	-57.33903241	-2.39936
55	1	0.5897	-2.19742	-56.6299726	-3.48864
56	3	-1.1794	-2.5414218	-57.22579955	-3.13184192
61	2	0	-2.606406	-66.36854	-3.22
62	1	0.5897	-2.606406	-66.36854	-2.39936
63	1	0.5897	-3.42516	-66.36854	-3.48864
64	3	-1.1794	-2.73716422	-66.36854	-3.13184192
65	2	0	-1.303203	-55.08114759	-4.14
66	1	0.5897	-1.71258	-54.3680244	-3.864
67	1	0.5897	-0.48093	-55.0791159	-3.864
68	3	-1.1794	-1.23764794	-54.96760321	-4.05236448
77	2	0	-1.303594	-59.59624	-4.14
78	1	0.5897	-1.71649	-58.8851485	-3.864
79	1	0.5897	-1.71649	-60.3073315	-3.864
80	3	-1.1794	-1.4346963	-59.59624	-4.05236448
85	2	0	-1.303594	-59.59624	-6.9
86	1	0.5897	-1.303594	-59.59624	-6.07936
87	1	0.5897	-0.48484	-59.59624	-7.16864
88	3	-1.1794	-1.17283578	-59.59624	-6.811842656
89	2	0	-2.606406	-66.36854	-0.46
90	1	0.5897	-2.19351	-65.6574485	-0.184
91	1	0.5897	-2.19351	-67.0796315	-0.184
92	3	-1.1794	-2.4753037	-66.36854	-0.37236448
97	2	0	-1.303203	-50.56673241	-4.14
98	1	0.5897	-1.71258	-51.2798556	-3.864
99	1	0.5897	-0.48093	-50.5687641	-3.864
100	3	-1.1794	-1.23764794	-50.68027679	-4.05236448
105	2	0	-1.303203	-50.56673241	-6.9
106	1	0.5897	-1.303203	-50.56673241	-6.07936
107	1	0.5897	-1.71258	-49.8576726	-7.16864
108	3	-1.1794	-1.3685782	-50.45349955	-6.811842656
109	2	0	-2.606797	-48.30884759	-3.22
110	1	0.5897	-2.606797	-48.30884759	-2.39936
111	1	0.5897	-2.19742	-49.0179074	-3.48864
112	3	-1.1794	-2.5414218	-48.42209399	-3.13184192
125	2	0	-1.303203	-41.53654759	-6.9
126	1	0.5897	-1.303203	-41.53654759	-6.07936
127	1	0.5897	-1.71258	-42.2456074	-7.16864
128	3	-1.1794	-1.3685782	-41.64979399	-6.811842656
129	2	0	-2.606797	-48.30884759	-0.46
130	1	0.5897	-2.19742	-47.5957244	-0.184
131	1	0.5897	-3.42907	-48.3068159	-0.184
132	3	-1.1794	-2.67235206	-48.19530321	-0.37236448
141	2	0	-2.606797	-43.79443241	-0.46
142	1	0.5897	-2.19742	-44.5075556	-0.184
143	1	0.5897	-3.42907	-43.7964641	-0.184
144	3	-1.1794	-2.67235206	-43.90797679	-0.37236448
149	2	0	-2.606797	-43.79443241	-3.22
150	1	0.5897	-2.606797	-43.79443241	-2.39936
151	1	0.5897	-2.19742	-43.0853726	-3.48864
152	3	-1.1794	-2.5414218	-43.68119955	-3.13184192
157	2	0	-2.606406	-52.82394	-3.22
158	1	0.5897	-2.606406	-52.82394	-2.39936
159	1	0.5897	-3.42516	-52.82394	-3.48864
160	3	-1.1794	-2.73716422	-52.82394	-3.13184192
161	2	0	-1.303203	-41.53654759	-4.14
162	1	0.5897	-1.71258	-40.8234244	-3.864
163	1	0.5897	-0.48093	-41.5345159	-3.864
164	3	-1.1794	-1.23764794	-41.42300321	-4.05236448
173	2	0	-1.303594	-46.05164	-4.14
174	1	0.5897	-1.71649	-45.3405485	-3.864
175	1	0.5897	-1.71649	-46.7627315	-3.864
176	3	-1.1794	-1.4346963	-46.05164	-4.05236448
181	2	0	-1.303594	-46.05164	-6.9
182	1	0.5897	-1.303594	-46.05164	-6.07936
183	1	0.5897	-0.48484	-46.05164	-7.16864
184	3	-1.1794	-1.17283578	-46.05164	-6.811842656
185	2	0	-2.606406	-52.82394	-0.46
186	1	0.5897	-2.19351	-52.1128485	-0.184
187	1	0.5897	-2.19351	-53.5350315	-0.184
188	3	-1.1794	-2.4753037	-52.82394	-0.37236448
193	2	0	-1.303203	-37.02213241	-4.14
194	1	0.5897	-1.71258	-37.7352556	-3.864
195	1	0.5897	-0.48093	-37.0241641	-3.864
196	3	-1.1794	-1.23764794	-37.13567679	-4.05236448
201	2	0	-1.303203	-37.02213241	-6.9
202	1	0.5897	-1.303203	-37.02213241	-6.07936
203	1	0.5897	-1.71258	-36.3130726	-7.16864
204	3	-1.1794	-1.3685782	-36.90889955	-6.811842656
205	2	0	-2.606797	-34.76424759	-3.22
206	1	0.5897	-2.606797	-34.76424759	-2.39936
207	1	0.5897	-2.19742	-35.4733074	-3.48864
208	3	-1.1794	-2.5414218	-34.87749399	-3.13184192
221	2	0	-1.303203	-27.99194759	-6.9
222	1	0.5897	-1.303203	-27.99194759	-6.07936
223	1	0.5897	-1.71258	-28.7010074	-7.16864
224	3	-1.1794	-1.3685782	-28.10519399	-6.811842656
225	2	0	-2.606797	-34.76424759	-0.46
226	1	0.5897	-2.19742	-34.0511244	-0.184
227	1	0.5897	-3.42907	-34.7622159	-0.184
228	3	-1.1794	-2.67235206	-34.65070321	-0.37236448
237	2	0	-2.606797	-30.24983241	-0.46
238	1	0.5897	-2.19742	-30.9629556	-0.184
239	1	0.5897	-3.42907	-30.2518641	-0.184
240	3	-1.1794	-2.67235206	-30.36337679	-0.37236448
245	2	0	-2.606797	-30.24983241	-3.22
246	1	0.5897	-2.606797	-30.24983241	-2.39936
247	1	0.5897	-2.19742	-29.5407726	-3.48864
248	3	-1.1794	-2.5414218	-30.13659955	-3.13184192
253	2	0	-2.606406	-39.27934	-3.22
254	1	0.5897	-2.606406	-39.27934	-2.39936
255	1	0.5897	-3.42516	-39.27934	-3.48864
256	3	-1.1794	-2.73716422	-39.27934	-3.13184192
257	2	0	-1.303203	-27.99194759	-4.14
258	1	0.5897	-1.71258	-27.2788244	-3.864
259	1	0.5897	-0.48093	-27.9899159	-3.864
260	3	-1.1794	-1.23764794	-27.87840321	-4.05236448
269	2	0	-1.303594	-32.50704	-4.14
270	1	0.5897	-1.71649	-31.7959485	-3.864
271	1	0.5897	-1.71649	-33.2181315	-3.864
272	3	-1.1794	-1.4346963	-32.50704	-4.05236448
277	2	0	-1.303594	-32.50704	-6.9
278	1	0.5897	-1.303594	-32.50704	-6.07936
279	1	0.5897	-0.48484	-32.50704	-7.16864
280	3	-1.1794	-1.17283578	-32.50704	-6.811842656
281	2	0	-2.606406	-39.27934	-0.46
282	1	0.5897	-2.19351	-38.5682485	-0.184
283	1	0.5897	-2.19351	-39.9904315	-0.184
284	3	-1.1794	-2.4753037	-39.27934	-0.37236448
289	2	0	-1.303203	-23.47753241	-4.14
290	1	0.5897	-1.71258	-24.1906556	-3.864
291	1	0.5897	-0.48093	-23.4795641	-3.864
292	3	-1.1794	-1.23764794	-23.59107679	-4.05236448
297	2	0	-1.303203	-23.47753241	-6.9
298	1	0.5897	-1.303203	-23.47753241	-6.07936
299	1	0.5897	-1.71258	-22.7684726	-7.16864
300	3	-1.1794	-1.3685782	-23.36429955	-6.811842656
301	2	0	-2.606797	-21.21964759	-3.22
302	1	0.5897	-2.606797	-21.21964759	-2.39936
303	1	0.5897	-2.19742	-21.9287074	-3.48864
304	3	-1.1794	-2.5414218	-21.33289399	-3.13184192
317	2	0	-1.303203	-14.44734759	-6.9
318	1	0.5897	-1.303203	-14.44734759	-6.07936
319	1	0.5897	-1.71258	-15.1564074	-7.16864
320	3	-1.1794	-1.3685782	-14.56059399	-6.811842656
321	2	0	-2.606797	-21.21964759	-0.46
322	1	0.5897	-2.19742	-20.5065244	-0.184
323	1	0.5897	-3.42907	-21.2176159	-0.184
324	3	-1.1794	-2.67235206	-21.10610321	-0.37236448
333	2	0	-2.606797	-16.70523241	-0.46
334	1	0.5897	-2.19742	-17.4183556	-0.184
335	1	0.5897	-3.42907	-16.7072641	-0.184
336	3	-1.1794	-2.67235206	-16.81877679	-0.37236448
341	2	0	-2.606797	-16.70523241	-3.22
342	1	0.5897	-2.606797	-16.70523241	-2.39936
343	1	0.5897	-2.19742	-15.9961726	-3.48864
344	3	-1.1794	-2.5414218	-16.59199955	-3.13184192
349	2	0	-2.606406	-25.73474	-3.22
350	1	0.5897	-2.606406	-25.73474	-2.39936
351	1	0.5897	-3.42516	-25.73474	-3.48864
352	3	-1.1794	-2.73716422	-25.73474	-3.13184192
353	2	0	-1.303203	-14.44734759	-4.14
354	1	0.5897	-1.71258	-13.7342244	-3.864
355	1	0.5897	-0.48093	-14.4453159	-3.864
356	3	-1.1794	-1.23764794	-14.33380321	-4.05236448
365	2	0	-1.303594	-18.96244	-4.14
366	1	0.5897	-1.71649	-18.2513485	-3.864
367	1	0.5897	-1.71649	-19.6735315	-3.864
368	3	-1.1794	-1.4346963	-18.96244	-4.05236448
373	2	0	-1.303594	-18.96244	-6.9
374	1	0.5897	-1.303594	-18.96244	-6.07936
375	1	0.5897	-0.48484	-18.96244	-7.16864
376	3	-1.1794	-1.17283578	-18.96244	-6.811842656
377	2	0	-2.606406	-25.73474	-0.46
378	1	0.5897	-2.19351	-25.0236485	-0.184
379	1	0.5897	-2.19351	-26.4458315	-0.184
380	3	-1.1794	-2.4753037	-25.73474	-0.37236448
389	2	0	2.606797	-57.33903241	-4.14
390	1	0.5897	2.19742	-58.0521556	-3.864
391	1	0.5897	3.42907	-57.3410641	-3.864
392	3	-1.1794	2.67235206	-57.45257679	-4.05236448
401	2	0	2.606797	-57.33903241	-6.9
402	1	0.5897	2.606797	-57.33903241	-6.07936
403	1	0.5897	2.19742	-56.6299726	-7.16864
404	3	-1.1794	2.5414218	-57.22579955	-6.811842656
405	2	0	1.303203	-55.08114759	-3.22
406	1	0.5897	1.303203	-55.08114759	-2.39936
407	1	0.5897	1.71258	-55.7902074	-3.48864
408	3	-1.1794	1.3685782	-55.19439399	-3.13184192
409	2	0	2.606797	-61.85344759	-6.9
410	1	0.5897	2.606797	-61.85344759	-6.07936
411	1	0.5897	2.19742	-62.5625074	-7.16864
412	3	-1.1794	2.5414218	-61.96669399	-6.811842656
421	2	0	1.303203	-64.11133241	-0.46
422	1	0.5897	1.71258	-64.8244556	-0.184
423	1	0.5897	0.48093	-64.1133641	-0.184
424	3	-1.1794	1.23764794	-64.22487679	-0.37236448
425	2	0	1.303203	-55.08114759	-0.46
426	1	0.5897	1.71258	-54.3680244	-0.184
427	1	0.5897	0.48093	-55.0791159	-0.184
428	3	-1.1794	1.23764794	-54.96760321	-0.37236448
433	2	0	1.303203	-64.11133241	-3.22
434	1	0.5897	1.303203	-64.11133241	-2.39936
435	1	0.5897	1.71258	-63.4022726	-3.48864
436	3	-1.1794	1.3685782	-63.99809955	-3.13184192
441	2	0	2.606797	-61.85344759	-4.14
442	1	0.5897	2.19742	-61.1403244	-3.864
443	1	0.5897	3.42907	-61.8514159	-3.864
444	3	-1.1794	2.67235206	-61.73990321	-4.05236448
453	2	0	1.303594	-59.59624	-3.22
454	1	0.5897	1.303594	-59.59624	-2.39936
455	1	0.5897	0.48484	-59.59624	-3.48864
456	3	-1.1794	1.17283578	-59.59624	-3.13184192
457	2	0	2.606406	-66.36854	-4.14
458	1	0.5897	2.19351	-65.6574485	-3.864
459	1	0.5897	2.19351	-67.0796315	-3.864
460	3	-1.1794	2.4753037	-66.36854	-4.05236448
465	2	0	2.606406	-66.36854	-6.9
466	1	0.5897	2.606406	-66.36854	-6.07936
467	1	0.5897	3.42516	-66.36854	-7.16864
468	3	-1.1794	2.73716422	-66.36854	-6.811842656
477	2	0	1.303594	-59.59624	-0.46
478	1	0.5897	1.71649	-58.8851485	-0.184
479	1	0.5897	1.71649	-60.3073315	-0.184
480	3	-1.1794	1.4346963	-59.59624	-0.37236448
485	2	0	2.606797	-43.79443241	-4.14
486	1	0.5897	2.19742	-44.5075556	-3.864
487	1	0.5897	3.42907	-43.7964641	-3.864
488	3	-1.1794	2.67235206	-43.90797679	-4.05236448
497	2	0	2.606797	-43.79443241	-6.9
498	1	0.5897	2.606797	-43.79443241	-6.07936
499	1	0.5897	2.19742	-43.0853726	-7.16864
500	3	-1.1794	2.5414218	-43.68119955	-6.811842656
501	2	0	1.303203	-41.53654759	-3.22
502	1	0.5897	1.303203	-41.53654759	-2.39936
503	1	0.5897	1.71258	-42.2456074	-3.48864
504	3	-1.1794	1.3685782	-41.64979399	-3.13184192
505	2	0	2.606797	-48.30884759	-6.9
506	1	0.5897	2.606797	-48.30884759	-6.07936
507	1	0.5897	2.19742	-49.0179074	-7.16864
508	3	-1.1794	2.5414218	-48.42209399	-6.811842656
517	2	0	1.303203	-50.56673241	-0.46
518	1	0.5897	1.71258	-51.2798556	-0.184
519	1	0.5897	0.48093	-50.5687641	-0.184
520	3	-1.1794	1.23764794	-50.68027679	-0.37236448
521	2	0	1.303203	-41.53654759	-0.46
522	1	0.5897	1.71258	-40.8234244	-0.184
523	1	0.5897	0.48093	-41.5345159	-0.184
524	3	-1.1794	1.23764794	-41.42300321	-0.37236448
529	2	0	1.303203	-50.56673241	-3.22
530	1	0.5897	1.303203	-50.56673241	-2.39936
531	1	0.5897	1.71258	-49.8576726	-3.48864
532	3	-1.1794	1.3685782	-50.45349955	-3.13184192
537	2	0	2.606797	-48.30884759	-4.14
538	1	0.5897	2.19742	-47.5957244	-3.864
539	1	0.5897	3.42907	-48.3068159	-3.864
540	3	-1.1794	2.67235206	-48.19530321	-4.05236448
549	2	0	1.303594	-46.05164	-3.22
550	1	0.5897	1.303594	-46.05164	-2.39936
551	1	0.5897	0.48484	-46.05164	-3.48864
552	3	-1.1794	1.17283578	-46.05164	-3.13184192
553	2	0	2.606406	-52.82394	-4.14
554	1	0.5897	2.19351	-52.1128485	-3.864
555	1	0.5897	2.19351	-53.5350315	-3.864
556	3	-1.1794	2.4753037	-52.82394	-4.05236448
561	2	0	2.606406	-52.82394	-6.9
562	1	0.5897	2.606406	-52.82394	-6.07936
563	1	0.5897	3.42516	-52.82394	-7.16864
564	3	-1.1794	2.73716422	-52.82394	-6.811842656
573	2	0	1.303594	-46.05164	-0.46
574	1	0.5897	1.71649	-45.3405485	-0.184
575	1	0.5897	1.71649	-46.7627315	-0.184
576	3	-1.1794	1.4346963	-46.05164	-0.37236448
581	2	0	2.606797	-30.24983241	-4.14
582	1	0.5897	2.19742	-30.9629556	-3.864
583	1	0.5897	3.42907	-30.2518641	-3.864
584	3	-1.1794	2.67235206	-30.36337679	-4.05236448
593	2	0	2.606797	-30.24983241	-6.9
594	1	0.5897	2.606797	-30.24983241	-6.07936
595	1	0.5897	2.19742	-29.5407726	-7.16864
596	3	-1.1794	2.5414218	-30.13659955	-6.811842656
597	2	0	1.303203	-27.99194759	-3.22
598	1	0.5897	1.303203	-27.99194759	-2.39936
599	1	0.5897	1.71258	-28.7010074	-3.48864
600	3	-1.1794	1.3685782	-28.10519399	-3.13184192
601	2	0	2.606797	-34.76424759	-6.9
602	1	0.5897	2.606797	-34.76424759	-6.07936
603	1	0.5897	2.19742	-35.4733074	-7.16864
604	3	-1.1794	2.5414218	-34.87749399	-6.811842656
613	2	0	1.303203	-37.02213241	-0.46
614	1	0.5897	1.71258	-37.7352556	-0.184
615	1	0.5897	0.48093	-37.0241641	-0.184
616	3	-1.1794	1.23764794	-37.13567679	-0.37236448
617	2	0	1.303203	-27.99194759	-0.46
618	1	0.5897	1.71258	-27.2788244	-0.184
619	1	0.5897	0.48093	-27.9899159	-0.184
620	3	-1.1794	1.23764794	-27.87840321	-0.37236448
625	2	0	1.303203	-37.02213241	-3.22
626	1	0.5897	1.303203	-37.02213241	-2.39936
627	1	0.5897	1.71258	-36.3130726	-3.48864
628	3	-1.1794	1.3685782	-36.90889955	-3.13184192
633	2	0	2.606797	-34.76424759	-4.14
634	1	0.5897	2.19742	-34.0511244	-3.864
635	1	0.5897	3.42907	-34.7622159	-3.864
636	3	-1.1794	2.67235206	-34.65070321	-4.05236448
645	2	0	1.303594	-32.50704	-3.22
646	1	0.5897	1.303594	-32.50704	-2.39936
647	1	0.5897	0.48484	-32.50704	-3.48864
648	3	-1.1794	1.17283578	-32.50704	-3.13184192
649	2	0	2.606406	-39.27934	-4.14
650	1	0.5897	2.19351	-38.5682485	-3.864
651	1	0.5897	2.19351	-39.9904315	-3.864
652	3	-1.1794	2.4753037	-39.27934	-4.05236448
657	2	0	2.606406	-39.27934	-6.9
658	1	0.5897	2.606406	-39.27934	-6.07936
659	1	0.5897	3.42516	-39.27934	-7.16864
660	3	-1.1794	2.73716422	-39.27934	-6.811842656
669	2	0	1.303594	-32.50704	-0.46
670	1	0.5897	1.71649	-31.7959485	-0.184
671	1	0.5897	1.71649	-33.2181315	-0.184
672	3	-1.1794	1.4346963	-32.50704	-0.37236448
677	2	0	2.606797	-16.70523241	-4.14
678	1	0.5897	2.19742	-17.4183556	-3.864
679	1	0.5897	3.42907	-16.7072641	-3.864
680	3	-1.1794	2.67235206	-16.81877679	-4.05236448
689	2	0	2.606797	-16.70523241	-6.9
690	1	0.5897	2.606797	-16.70523241	-6.07936
691	1	0.5897	2.19742	-15.9961726	-7.16864
692	3	-1.1794	2.5414218	-16.59199955	-6.811842656
693	2	0	1.303203	-14.44734759	-3.22
694	1	0.5897	1.303203	-14.44734759	-2.39936
695	1	0.5897	1.71258	-15.1564074	-3.48864
696	3	-1.1794	1.3685782	-14.56059399	-3.13184192
697	2	0	2.606797	-21.21964759	-6.9
698	1	0.5897	2.606797	-21.21964759	-6.07936
699	1	0.5897	2.19742	-21.9287074	-7.16864
700	3	-1.1794	2.5414218	-21.33289399	-6.811842656
709	2	0	1.303203	-23.47753241	-0.46
710	1	0.5897	1.71258	-24.1906556	-0.184
711	1	0.5897	0.48093	-23.4795641	-0.184
712	3	-1.1794	1.23764794	-23.59107679	-0.37236448
713	2	0	1.303203	-14.44734759	-0.46
714	1	0.5897	1.71258	-13.7342244	-0.184
715	1	0.5897	0.48093	-14.4453159	-0.184
716	3	-1.1794	1.23764794	-14.33380321	-0.37236448
721	2	0	1.303203	-23.47753241	-3.22
722	1	0.5897	1.303203	-23.47753241	-2.39936
723	1	0.5897	1.71258	-22.7684726	-3.48864
724	3	-1.1794	1.3685782	-23.36429955	-3.13184192
729	2	0	2.606797	-21.21964759	-4.14
730	1	0.5897	2.19742	-20.5065244	-3.864
731	1	0.5897	3.42907	-21.2176159	-3.864
732	3	-1.1794	2.67235206	-21.10610321	-4.05236448
741	2	0	1.303594	-18.96244	-3.22
742	1	0.5897	1.303594	-18.96244	-2.39936
743	1	0.5897	0.48484	-18.96244	-3.48864
744	3	-1.1794	1.17283578	-18.96244	-3.13184192
745	2	0	2.606406	-25.73474	-4.14
746	1	0.5897	2.19351	-25.0236485	-3.864
747	1	0.5897	2.19351	-26.4458315	-3.864
748	3	-1.1794	2.4753037	-25.73474	-4.05236448
753	2	0	2.606406	-25.73474	-6.9
754	1	0.5897	2.606406	-25.73474	-6.07936
755	1	0.5897	3.42516	-25.73474	-7.16864
756	3	-1.1794	2.73716422	-25.73474	-6.811842656
765	2	0	1.303594	-18.96244	-0.46
766	1	0.5897	1.71649	-18.2513485	-0.184
767	1	0.5897	1.71649	-19.6735315	-0.184
768	3	-1.1794	1.4346963	-18.96244	-0.37236448
769	2	0	-1.303203	-64.11133241	3.22
770	1	0.5897	-1.71258	-64.8244556	3.496
771	1	0.5897	-0.48093	-64.1133641	3.496
772	3	-1.1794	-1.23764794	-64.22487679	3.30763552
777	2	0	-1.303203	-64.11133241	0.46
778	1	0.5897	-1.303203	-64.11133241	1.28064
779	1	0.5897	-1.71258	-63.4022726	0.19136
780	3	-1.1794	-1.3685782	-63.99809955	0.548157344
781	2	0	-2.606797	-61.85344759	4.14
782	1	0.5897	-2.606797	-61.85344759	4.96064
783	1	0.5897	-2.19742	-62.5625074	3.87136
784	3	-1.1794	-2.5414218	-61.96669399	4.22815808
797	2	0	-1.303203	-55.08114759	0.46
798	1	0.5897	-1.303203	-55.08114759	1.28064
799	1	0.5897	-1.71258	-55.7902074	0.19136
800	3	-1.1794	-1.3685782	-55.19439399	0.548157344
801	2	0	-2.606797	-61.85344759	6.9
802	1	0.5897	-2.19742	-61.1403244	7.176
803	1	0.5897	-3.42907	-61.8514159	7.176
804	3	-1.1794	-2.67235206	-61.73990321	6.98763552
813	2	0	-2.606797	-57.33903241	6.9
814	1	0.5897	-2.19742	-58.0521556	7.176
815	1	0.5897	-3.42907	-57.3410641	7.176
816	3	-1.1794	-2.67235206	-57.45257679	6.98763552
821	2	0	-2.606797	-57.33903241	4.14
822	1	0.5897	-2.606797	-57.33903241	4.96064
823	1	0.5897	-2.19742	-56.6299726	3.87136
824	3	-1.1794	-2.5414218	-57.22579955	4.22815808
829	2	0	-2.606406	-66.36854	4.14
830	1	0.5897	-2.606406	-66.36854	4.96064
831	1	0.5897	-3.42516	-66.36854	3.87136
832	3	-1.1794	-2.73716422	-66.36854	4.22815808
833	2	0	-1.303203	-55.08114759	3.22
834	1	0.5897	-1.71258	-54.3680244	3.496
835	1	0.5897	-0.48093	-55.0791159	3.496
836	3	-1.1794	-1.23764794	-54.96760321	3.30763552
845	2	0	-1.303594	-59.59624	3.22
846	1	0.5897	-1.71649	-58.8851485	3.496
847	1	0.5897	-1.71649	-60.3073315	3.496
848	3	-1.1794	-1.4346963	-59.59624	3.30763552
853	2	0	-1.303594	-59.59624	0.46
854	1	0.5897	-1.303594	-59.59624	1.28064
855	1	0.5897	-0.48484	-59.59624	0.19136
856	3	-1.1794	-1.17283578	-59.59624	0.548157344
857	2	0	-2.606406	-66.36854	6.9
858	1	0.5897	-2.19351	-65.6574485	7.176
859	1	0.5897	-2.19351	-67.0796315	7.176
860	3	-1.1794	-2.4753037	-66.36854	6.98763552
865	2	0	-1.303203	-50.56673241	3.22
866	1	0.5897	-1.71258	-51.2798556	3.496
867	1	0.5897	-0.48093	-50.5687641	3.496
868	3	-1.1794	-1.23764794	-50.68027679	3.30763552
873	2	0	-1.303203	-50.56673241	0.46
874	1	0.5897	-1.303203	-50.56673241	1.28064
875	1	0.5897	-1.71258	-49.8576726	0.19136
876	3	-1.1794	-1.3685782	-50.45349955	0.548157344
877	2	0	-2.606797	-48.30884759	4.14
878	1	0.5897	-2.606797	-48.30884759	4.96064
879	1	0.5897	-2.19742	-49.0179074	3.87136
880	3	-1.1794	-2.5414218	-48.42209399	4.22815808
893	2	0	-1.303203	-41.53654759	0.46
894	1	0.5897	-1.303203	-41.53654759	1.28064
895	1	0.5897	-1.71258	-42.2456074	0.19136
896	3	-1.1794	-1.3685782	-41.64979399	0.548157344
897	2	0	-2.606797	-48.30884759	6.9
898	1	0.5897	-2.19742	-47.5957244	7.176
899	1	0.5897	-3.42907	-48.3068159	7.176
900	3	-1.1794	-2.67235206	-48.19530321	6.98763552
909	2	0	-2.606797	-43.79443241	6.9
910	1	0.5897	-2.19742	-44.5075556	7.176
911	1	0.5897	-3.42907	-43.7964641	7.176
912	3	-1.1794	-2.67235206	-43.90797679	6.98763552
917	2	0	-2.606797	-43.79443241	4.14
918	1	0.5897	-2.606797	-43.79443241	4.96064
919	1	0.5897	-2.19742	-43.0853726	3.87136
920	3	-1.1794	-2.5414218	-43.68119955	4.22815808
925	2	0	-2.606406	-52.82394	4.14
926	1	0.5897	-2.606406	-52.82394	4.96064
927	1	0.5897	-3.42516	-52.82394	3.87136
928	3	-1.1794	-2.73716422	-52.82394	4.22815808
929	2	0	-1.303203	-41.53654759	3.22
930	1	0.5897	-1.71258	-40.8234244	3.496
931	1	0.5897	-0.48093	-41.5345159	3.496
932	3	-1.1794	-1.23764794	-41.42300321	3.30763552
941	2	0	-1.303594	-46.05164	3.22
942	1	0.5897	-1.71649	-45.3405485	3.496
943	1	0.5897	-1.71649	-46.7627315	3.496
944	3	-1.1794	-1.4346963	-46.05164	3.30763552
949	2	0	-1.303594	-46.05164	0.46
950	1	0.5897	-1.303594	-46.05164	1.28064
951	1	0.5897	-0.48484	-46.05164	0.19136
952	3	-1.1794	-1.17283578	-46.05164	0.548157344
953	2	0	-2.606406	-52.82394	6.9
954	1	0.5897	-2.19351	-52.1128485	7.176
955	1	0.5897	-2.19351	-53.5350315	7.176
956	3	-1.1794	-2.4753037	-52.82394	6.98763552
961	2	0	-1.303203	-37.02213241	3.22
962	1	0.5897	-1.71258	-37.7352556	3.496
963	1	0.5897	-0.48093	-37.0241641	3.496
964	3	-1.1794	-1.23764794	-37.13567679	3.30763552
969	2	0	-1.303203	-37.02213241	0.46
970	1	0.5897	-1.303203	-37.02213241	1.28064
971	1	0.5897	-1.71258	-36.3130726	0.19136
972	3	-1.1794	-1.3685782	-36.90889955	0.548157344
973	2	0	-2.606797	-34.76424759	4.14
974	1	0.5897	-2.606797	-34.76424759	4.96064
975	1	0.5897	-2.19742	-35.4733074	3.87136
976	3	-1.1794	-2.5414218	-34.87749399	4.22815808
989	2	0	-1.303203	-27.99194759	0.46
990	1	0.5897	-1.303203	-27.99194759	1.28064
991	1	0.5897	-1.71258	-28.7010074	0.19136
992	3	-1.1794	-1.3685782	-28.10519399	0.548157344
993	2	0	-2.606797	-34.76424759	6.9
994	1	0.5897	-2.19742	-34.0511244	7.176
995	1	0.5897	-3.42907	-34.7622159	7.176
996	3	-1.1794	-2.67235206	-34.65070321	6.98763552
1005	2	0	-2.606797	-30.24983241	6.9
1006	1	0.5897	-2.19742	-30.9629556	7.176
1007	1	0.5897	-3.42907	-30.2518641	7.176
1008	3	-1.1794	-2.67235206	-30.36337679	6.98763552
1013	2	0	-2.606797	-30.24983241	4.14
1014	1	0.5897	-2.606797	-30.24983241	4.96064
1015	1	0.5897	-2.19742	-29.5407726	3.87136
1016	3	-1.1794	-2.5414218	-30.13659955	4.22815808
1021	2	0	-2.606406	-39.27934	4.14
1022	1	0.5897	-2.606406	-39.27934	4.96064
1023	1	0.5897	-3.42516	-39.27934	3.87136
1024	3	-1.1794	-2.73716422	-39.27934	4.22815808
1025	2	0	-1.303203	-27.99194759	3.22
1026	1	0.5897	-1.71258	-27.2788244	3.496
1027	1	0.5897	-0.48093	-27.9899159	3.496
1028	3	-1.1794	-1.23764794	-27.87840321	3.30763552
1037	2	0	-1.303594	-32.50704	3.22
1038	1	0.5897	-1.71649	-31.7959485	3.496
1039	1	0.5897	-1.71649	-33.2181315	3.496
1040	3	-1.1794	-1.4346963	-32.50704	3.30763552
1045	2	0	-1.303594	-32.50704	0.46
1046	1	0.5897	-1.303594	-32.50704	1.28064
1047	1	0.5897	-0.48484	-32.50704	0.19136
1048	3	-1.1794	-1.17283578	-32.50704	0.548157344
1049	2	0	-2.606406	-39.27934	6.9
1050	1	0.5897	-2.19351	-38.5682485	7.176
1051	1	0.5897	-2.19351	-39.9904315	7.176
1052	3	-1.1794	-2.4753037	-39.27934	6.98763552
1057	2	0	-1.303203	-23.47753241	3.22
1058	1	0.5897	-1.71258	-24.1906556	3.496
1059	1	0.5897	-0.48093	-23.4795641	3.496
1060	3	-1.1794	-1.23764794	-23.59107679	3.30763552
1065	2	0	-1.303203	-23.47753241	0.46
1066	1	0.5897	-1.303203	-23.47753241	1.28064
1067	1	0.5897	-1.71258	-22.7684726	0.19136
1068	3	-1.1794	-1.3685782	-23.36429955	0.548157344
1069	2	0	-2.606797	-21.21964759	4.14
1070	1	0.5897	-2.606797	-21.21964759	4.96064
1071	1	0.5897	-2.19742	-21.9287074	3.87136
1072	3	-1.1794	-2.5414218	-21.33289399	4.22815808
1085	2	0	-1.303203	-14.44734759	0.46
1086	1	0.5897	-1.303203	-14.44734759	1.28064
1087	1	0.5897	-1.71258	-15.1564074	0.19136
1088	3	-1.1794	-1.3685782	-14.56059399	0.548157344
1089	2	0	-2.606797	-21.21964759	6.9
1090	1	0.5897	-2.19742	-20.5065244	7.176
1091	1	0.5897	-3.42907	-21.2176159	7.176
1092	3	-1.1794	-2.67235206	-21.10610321	6.98763552
1101	2	0	-2.606797	-16.70523241	6.9
1102	1	0.5897	-2.19742	-17.4183556	7.176
1103	1	0.5897	-3.42907	-16.7072641	7.176
1104	3	-1.1794	-2.67235206	-16.81877679	6.98763552
1109	2	0	-2.606797	-16.70523241	4.14
1110	1	0.5897	-2.606797	-16.70523241	4.96064
1111	1	0.5897	-2.19742	-15.9961726	3.87136
1112	3	-1.1794	-2.5414218	-16.59199955	4.22815808
1117	2	0	-2.606406	-25.73474	4.14
1118	1	0.5897	-2.606406	-25.73474	4.96064
1119	1	0.5897	-3.42516	-25.73474	3.87136
1120	3	-1.1794	-2.73716422	-25.73474	4.22815808
1121	2	0	-1.303203	-14.44734759	3.22
1122	1	0.5897	-1.71258	-13.7342244	3.496
1123	1	0.5897	-0.48093	-14.4453159	3.496
1124	3	-1.1794	-1.23764794	-14.33380321	3.30763552
1133	2	0	-1.303594	-18.96244	3.22
1134	1	0.5897	-1.71649	-18.2513485	3.496
1135	1	0.5897	-1.71649	-19.6735315	3.496
1136	3	-1.1794	-1.4346963	-18.96244	3.30763552
1141	2	0	-1.303594	-18.96244	0.46
1142	1	0.5897	-1.303594	-18.96244	1.28064
1143	1	0.5897	-0.48484	-18.96244	0.19136
1144	3	-1.1794	-1.17283578	-18.96244	0.548157344
1145	2	0	-2.606406	-25.73474	6.9
1146	1	0.5897	-2.19351	-25.0236485	7.176
1147	1	0.5897	-2.19351	-26.4458315	7.176
1148	3	-1.1794	-2.4753037	-25.73474	6.98763552
1157	2	0	2.606797	-57.33903241	3.22
1158	1	0.5897	2.19742	-58.0521556	3.496
1159	1	0.5897	3.42907	-57.3410641	3.496
1160	3	-1.1794	2.67235206	-57.45257679	3.30763552
1169	2	0	2.606797	-57.33903241	0.46
1170	1	0.5897	2.606797	-57.33903241	1.28064
1171	1	0.5897	2.19742	-56.6299726	0.19136
1172	3	-1.1794	2.5414218	-57.22579955	0.548157344
1173	2	0	1.303203	-55.08114759	4.14
1174	1	0.5897	1.303203	-55.08114759	4.96064
1175	1	0.5897	1.71258	-55.7902074	3.87136
1176	3	-1.1794	1.3685782	-55.19439399	4.22815808
1177	2	0	2.606797	-61.85344759	0.46
1178	1	0.5897	2.606797	-61.85344759	1.28064
1179	1	0.5897	2.19742	-62.5625074	0.19136
1180	3	-1.1794	2.5414218	-61.96669399	0.548157344
1189	2	0	1.303203	-64.11133241	6.9
1190	1	0.5897	1.71258	-64.8244556	7.176
1191	1	0.5897	0.48093	-64.1133641	7.176
1192	3	-1.1794	1.23764794	-64.22487679	6.98763552
1193	2	0	1.303203	-55.08114759	6.9
1194	1	0.5897	1.71258	-54.3680244	7.176
1195	1	0.5897	0.48093	-55.0791159	7.176
1196	3	-1.1794	1.23764794	-54.96760321	6.98763552
1201	2	0	1.303203	-64.11133241	4.14
1202	1	0.5897	1.303203	-64.11133241	4.96064
1203	1	0.5897	1.71258	-63.4022726	3.87136
1204	3	-1.1794	1.3685782	-63.99809955	4.22815808
1209	2	0	2.606797	-61.85344759	3.22
1210	1	0.5897	2.19742	-61.1403244	3.496
1211	1	0.5897	3.42907	-61.8514159	3.496
1212	3	-1.1794	2.67235206	-61.73990321	3.30763552
1221	2	0	1.303594	-59.59624	4.14
1222	1	0.5897	1.303594	-59.59624	4.96064
1223	1	0.5897	0.48484	-59.59624	3.87136
1224	3	-1.1794	1.17283578	-59.59624	4.22815808
1225	2	0	2.606406	-66.36854	3.22
1226	1	0.5897	2.19351	-65.6574485	3.496
1227	1	0.5897	2.19351	-67.0796315	3.496
1228	3	-1.1794	2.4753037	-66.36854	3.30763552
1233	2	0	2.606406	-66.36854	0.46
1234	1	0.5897	2.606406	-66.36854	1.28064
1235	1	0.5897	3.42516	-66.36854	0.19136
1236	3	-1.1794	2.73716422	-66.36854	0.548157344
1245	2	0	1.303594	-59.59624	6.9
1246	1	0.5897	1.71649	-58.8851485	7.176
1247	1	0.5897	1.71649	-60.3073315	7.176
1248	3	-1.1794	1.4346963	-59.59624	6.98763552
1253	2	0	2.606797	-43.79443241	3.22
1254	1	0.5897	2.19742	-44.5075556	3.496
1255	1	0.5897	3.42907	-43.7964641	3.496
1256	3	-1.1794	2.67235206	-43.90797679	3.30763552
1265	2	0	2.606797	-43.79443241	0.46
1266	1	0.5897	2.606797	-43.79443241	1.28064
1267	1	0.5897	2.19742	-43.0853726	0.19136
1268	3	-1.1794	2.5414218	-43.68119955	0.548157344
1269	2	0	1.303203	-41.53654759	4.14
1270	1	0.5897	1.303203	-41.53654759	4.96064
1271	1	0.5897	1.71258	-42.2456074	3.87136
1272	3	-1.1794	1.3685782	-41.64979399	4.22815808
1273	2	0	2.606797	-48.30884759	0.46
1274	1	0.5897	2.606797	-48.30884759	1.28064
1275	1	0.5897	2.19742	-49.0179074	0.19136
1276	3	-1.1794	2.5414218	-48.42209399	0.548157344
1285	2	0	1.303203	-50.56673241	6.9
1286	1	0.5897	1.71258	-51.2798556	7.176
1287	1	0.5897	0.48093	-50.5687641	7.176
1288	3	-1.1794	1.23764794	-50.68027679	6.98763552
1289	2	0	1.303203	-41.53654759	6.9
1290	1	0.5897	1.71258	-40.8234244	7.176
1291	1	0.5897	0.48093	-41.5345159	7.176
1292	3	-1.1794	1.23764794	-41.42300321	6.98763552
1297	2	0	1.303203	-50.56673241	4.14
1298	1	0.5897	1.303203	-50.56673241	4.96064
1299	1	0.5897	1.71258	-49.8576726	3.87136
1300	3	-1.1794	1.3685782	-50.45349955	4.22815808
1305	2	0	2.606797	-48.30884759	3.22
1306	1	0.5897	2.19742	-47.5957244	3.496
1307	1	0.5897	3.42907	-48.3068159	3.496
1308	3	-1.1794	2.67235206	-48.19530321	3.30763552
1317	2	0	1.303594	-46.05164	4.14
1318	1	0.5897	1.303594	-46.05164	4.96064
1319	1	0.5897	0.48484	-46.05164	3.87136
1320	3	-1.1794	1.17283578	-46.05164	4.22815808
1321	2	0	2.606406	-52.82394	3.22
1322	1	0.5897	2.19351	-52.1128485	3.496
1323	1	0.5897	2.19351	-53.5350315	3.496
1324	3	-1.1794	2.4753037	-52.82394	3.30763552
1329	2	0	2.606406	-52.82394	0.46
1330	1	0.5897	2.606406	-52.82394	1.28064
1331	1	0.5897	3.42516	-52.82394	0.19136
1332	3	-1.1794	2.73716422	-52.82394	0.548157344
1341	2	0	1.303594	-46.05164	6.9
1342	1	0.5897	1.71649	-45.3405485	7.176
1343	1	0.5897	1.71649	-46.7627315	7.176
1344	3	-1.1794	1.4346963	-46.05164	6.98763552
1349	2	0	2.606797	-30.24983241	3.22
1350	1	0.5897	2.19742	-30.9629556	3.496
1351	1	0.5897	3.42907	-30.2518641	3.496
1352	3	-1.1794	2.67235206	-30.36337679	3.30763552
1361	2	0	2.606797	-30.24983241	0.46
1362	1	0.5897	2.606797	-30.24983241	1.28064
1363	1	0.5897	2.19742	-29.5407726	0.19136
1364	3	-1.1794	2.5414218	-30.13659955	0.548157344
1365	2	0	1.303203	-27.99194759	4.14
1366	1	0.5897	1.303203	-27.99194759	4.96064
1367	1	0.5897	1.71258	-28.7010074	3.87136
1368	3	-1.1794	1.3685782	-28.10519399	4.22815808
1369	2	0	2.606797	-34.76424759	0.46
1370	1	0.5897	2.606797	-34.76424759	1.28064
1371	1	0.5897	2.19742	-35.4733074	0.19136
1372	3	-1.1794	2.5414218	-34.87749399	0.548157344
1381	2	0	1.303203	-37.02213241	6.9
1382	1	0.5897	1.71258	-37.7352556	7.176
1383	1	0.5897	0.48093	-37.0241641	7.176
1384	3	-1.1794	1.23764794	-37.13567679	6.98763552
1385	2	0	1.303203	-27.99194759	6.9
1386	1	0.5897	1.71258	-27.2788244	7.176
1387	1	0.5897	0.48093	-27.9899159	7.176
1388	3	-1.1794	1.23764794	-27.87840321	6.98763552