ITEM: TIMESTEP
0
ITEM: NUMBER OF ATOMS
96
ITEM: BOX BOUNDS pp pp pp
0.0000000000000000e+00 7.8200000000000003e+00
0.0000000000000000e+00 1.3544600000000001e+01
0.0000000000000000e+00 7.3600000000000003e+00
ITEM: ATOMS id type xs ys zs
1 2 0.83335 0.26665 0.4375
2 1 0.781 0.214 0.475
3 1 0.9385 0.2665 0.475
4 3 0.841733 0.258267 0.449407
5 2 0.33335 0.76665 0.4375
6 1 0.281 0.714 0.475
7 1 0.4385 0.7665 0.475
8 3 0.341733 0.758267 0.449407
9 2 0.83335 0.26665 0.0625
10 1 0.83335 0.26665 0.174
11 1 0.781 0.319 0.026
12 3 0.82499 0.27501 0.0744779
13 2 0.66665 0.43335 0.5625
14 1 0.66665 0.43335 0.674
15 1 0.719 0.381 0.526
16 3 0.67501 0.424989 0.574478
17 2 0.33335 0.76665 0.0625
18 1 0.33335 0.76665 0.174
19 1 0.281 0.819 0.026
20 3 0.32499 0.77501 0.0744779
21 2 0.16665 0.93335 0.5625
22 1 0.16665 0.93335 0.674
23 1 0.219 0.881 0.526
24 3 0.17501 0.924989 0.574478
25 2 0.33335 0.43335 0.0625
26 1 0.33335 0.43335 0.174
27 1 0.281 0.381 0.026
28 3 0.32499 0.424989 0.0744779
29 2 0.83335 0.93335 0.0625
30 1 0.83335 0.93335 0.174
31 1 0.781 0.881 0.026
32 3 0.82499 0.924989 0.0744779
33 2 0.66665 0.43335 0.9375
34 1 0.719 0.486 0.975
35 1 0.5615 0.4335 0.975
36 3 0.658267 0.441733 0.949407
37 2 0.16665 0.26665 0.9375
38 1 0.219 0.214 0.975
39 1 0.0615 0.2665 0.975
40 3 0.158267 0.258267 0.949407
41 2 0.16665 0.93335 0.9375
42 1 0.219 0.986 0.975
43 1 0.0615 0.9335 0.975
44 3 0.158267 0.941733 0.949407
45 2 0.66665 0.76665 0.9375
46 1 0.719 0.714 0.975
47 1 0.5615 0.7665 0.975
48 3 0.658267 0.758267 0.949407
49 2 0.16665 0.26665 0.5625
50 1 0.16665 0.26665 0.674
51 1 0.219 0.319 0.526
52 3 0.17501 0.27501 0.574478
53 2 0.66665 0.76665 0.5625
54 1 0.66665 0.76665 0.674
55 1 0.719 0.819 0.526
56 3 0.67501 0.77501 0.574478
57 2 0.33335 0.43335 0.4375
58 1 0.281 0.486 0.475
59 1 0.4385 0.4335 0.475
60 3 0.341733 0.441733 0.449407
61 2 0.6667 0.1 0.5625
62 1 0.6667 0.1 0.674
63 1 0.562 0.1 0.526
64 3 0.649979 0.1 0.574478
65 2 0.83335 0.93335 0.4375
66 1 0.781 0.986 0.475
67 1 0.9385 0.9335 0.475
68 3 0.841733 0.941733 0.449407
69 2 0.1667 0.6 0.5625
70 1 0.1667 0.6 0.674
71 1 0.062 0.6 0.526
72 3 0.149979 0.6 0.574478
73 2 0.3333 0.1 0.4375
74 1 0.2805 0.1525 0.475
75 1 0.2805 0.0475 0.475
76 3 0.316535 0.1 0.449407
77 2 0.8333 0.6 0.4375
78 1 0.7805 0.6525 0.475
79 1 0.7805 0.5475 0.475
80 3 0.816535 0.6 0.449407
81 2 0.3333 0.1 0.0625
82 1 0.3333 0.1 0.174
83 1 0.438 0.1 0.026
84 3 0.350021 0.1 0.0744779
85 2 0.8333 0.6 0.0625
86 1 0.8333 0.6 0.174
87 1 0.938 0.6 0.026
88 3 0.850021 0.6 0.0744779
89 2 0.6667 0.1 0.9375
90 1 0.7195 0.1525 0.975
91 1 0.7195 0.0475 0.975
92 3 0.683465 0.1 0.949407
93 2 0.1667 0.6 0.9375
94 1 0.2195 0.6525 0.975
95 1 0.2195 0.5475 0.975
96 3 0.183465 0.6 0.949407
